+ 0.5 0 1 tcp 40 ------- 0 0.0 2.0 0 0
- 0.5 0 1 tcp 40 ------- 0 0.0 2.0 0 0
r 0.51032 0 1 tcp 40 ------- 0 0.0 2.0 0 0
+ 0.51032 1 2 tcp 40 ------- 0 0.0 2.0 0 0
- 0.51032 1 2 tcp 40 ------- 0 0.0 2.0 0 0
r 0.52064 1 2 tcp 40 ------- 0 0.0 2.0 0 0
+ 0.52064 2 1 ack 40 ------- 0 2.0 0.0 0 1
- 0.52064 2 1 ack 40 ------- 0 2.0 0.0 0 1
r 0.53096 2 1 ack 40 ------- 0 2.0 0.0 0 1
+ 0.53096 1 0 ack 40 ------- 0 2.0 0.0 0 1
- 0.53096 1 0 ack 40 ------- 0 2.0 0.0 0 1
r 0.54128 1 0 ack 40 ------- 0 2.0 0.0 0 1
+ 0.54128 0 1 tcp 1040 ------- 0 0.0 2.0 1 2
- 0.54128 0 1 tcp 1040 ------- 0 0.0 2.0 1 2
+ 0.54128 0 1 tcp 1040 ------- 0 0.0 2.0 2 3
- 0.5496 0 1 tcp 1040 ------- 0 0.0 2.0 2 3
r 0.5596 0 1 tcp 1040 ------- 0 0.0 2.0 1 2
+ 0.5596 1 2 tcp 1040 ------- 0 0.0 2.0 1 2
- 0.5596 1 2 tcp 1040 ------- 0 0.0 2.0 1 2
r 0.56792 0 1 tcp 1040 ------- 0 0.0 2.0 2 3
+ 0.56792 1 2 tcp 1040 ------- 0 0.0 2.0 2 3
- 0.56792 1 2 tcp 1040 ------- 0 0.0 2.0 2 3
r 0.57792 1 2 tcp 1040 ------- 0 0.0 2.0 1 2
+ 0.57792 2 1 ack 40 ------- 0 2.0 0.0 1 4
- 0.57792 2 1 ack 40 ------- 0 2.0 0.0 1 4
r 0.58624 1 2 tcp 1040 ------- 0 0.0 2.0 2 3
+ 0.58624 2 1 ack 40 ------- 0 2.0 0.0 2 5
- 0.58624 2 1 ack 40 ------- 0 2.0 0.0 2 5
r 0.58824 2 1 ack 40 ------- 0 2.0 0.0 1 4
+ 0.58824 1 0 ack 40 ------- 0 2.0 0.0 1 4
- 0.58824 1 0 ack 40 ------- 0 2.0 0.0 1 4
r 0.59656 2 1 ack 40 ------- 0 2.0 0.0 2 5
+ 0.59656 1 0 ack 40 ------- 0 2.0 0.0 2 5
- 0.59656 1 0 ack 40 ------- 0 2.0 0.0 2 5
r 0.59856 1 0 ack 40 ------- 0 2.0 0.0 1 4
+ 0.59856 0 1 tcp 1040 ------- 0 0.0 2.0 3 6
- 0.59856 0 1 tcp 1040 ------- 0 0.0 2.0 3 6
+ 0.59856 0 1 tcp 1040 ------- 0 0.0 2.0 4 7
r 0.60688 1 0 ack 40 ------- 0 2.0 0.0 2 5
+ 0.60688 0 1 tcp 1040 ------- 0 0.0 2.0 5 8
+ 0.60688 0 1 tcp 1040 ------- 0 0.0 2.0 6 9
- 0.60688 0 1 tcp 1040 ------- 0 0.0 2.0 4 7
- 0.6152 0 1 tcp 1040 ------- 0 0.0 2.0 5 8
r 0.61688 0 1 tcp 1040 ------- 0 0.0 2.0 3 6
+ 0.61688 1 2 tcp 1040 ------- 0 0.0 2.0 3 6
- 0.61688 1 2 tcp 1040 ------- 0 0.0 2.0 3 6
- 0.62352 0 1 tcp 1040 ------- 0 0.0 2.0 6 9
r 0.6252 0 1 tcp 1040 ------- 0 0.0 2.0 4 7
+ 0.6252 1 2 tcp 1040 ------- 0 0.0 2.0 4 7
- 0.6252 1 2 tcp 1040 ------- 0 0.0 2.0 4 7
r 0.63352 0 1 tcp 1040 ------- 0 0.0 2.0 5 8
+ 0.63352 1 2 tcp 1040 ------- 0 0.0 2.0 5 8
- 0.63352 1 2 tcp 1040 ------- 0 0.0 2.0 5 8
r 0.6352 1 2 tcp 1040 ------- 0 0.0 2.0 3 6
+ 0.6352 2 1 ack 40 ------- 0 2.0 0.0 3 10
- 0.6352 2 1 ack 40 ------- 0 2.0 0.0 3 10
r 0.64184 0 1 tcp 1040 ------- 0 0.0 2.0 6 9
+ 0.64184 1 2 tcp 1040 ------- 0 0.0 2.0 6 9
- 0.64184 1 2 tcp 1040 ------- 0 0.0 2.0 6 9
r 0.64352 1 2 tcp 1040 ------- 0 0.0 2.0 4 7
+ 0.64352 2 1 ack 40 ------- 0 2.0 0.0 4 11
- 0.64352 2 1 ack 40 ------- 0 2.0 0.0 4 11
r 0.64552 2 1 ack 40 ------- 0 2.0 0.0 3 10
+ 0.64552 1 0 ack 40 ------- 0 2.0 0.0 3 10
- 0.64552 1 0 ack 40 ------- 0 2.0 0.0 3 10
r 0.65184 1 2 tcp 1040 ------- 0 0.0 2.0 5 8
+ 0.65184 2 1 ack 40 ------- 0 2.0 0.0 5 12
- 0.65184 2 1 ack 40 ------- 0 2.0 0.0 5 12
r 0.65384 2 1 ack 40 ------- 0 2.0 0.0 4 11
+ 0.65384 1 0 ack 40 ------- 0 2.0 0.0 4 11
- 0.65384 1 0 ack 40 ------- 0 2.0 0.0 4 11
r 0.65584 1 0 ack 40 ------- 0 2.0 0.0 3 10
+ 0.65584 0 1 tcp 1040 ------- 0 0.0 2.0 7 13
- 0.65584 0 1 tcp 1040 ------- 0 0.0 2.0 7 13
+ 0.65584 0 1 tcp 1040 ------- 0 0.0 2.0 8 14
r 0.66016 1 2 tcp 1040 ------- 0 0.0 2.0 6 9
+ 0.66016 2 1 ack 40 ------- 0 2.0 0.0 6 15
- 0.66016 2 1 ack 40 ------- 0 2.0 0.0 6 15
r 0.66216 2 1 ack 40 ------- 0 2.0 0.0 5 12
+ 0.66216 1 0 ack 40 ------- 0 2.0 0.0 5 12
- 0.66216 1 0 ack 40 ------- 0 2.0 0.0 5 12
r 0.66416 1 0 ack 40 ------- 0 2.0 0.0 4 11
+ 0.66416 0 1 tcp 1040 ------- 0 0.0 2.0 9 16
+ 0.66416 0 1 tcp 1040 ------- 0 0.0 2.0 10 17
- 0.66416 0 1 tcp 1040 ------- 0 0.0 2.0 8 14
r 0.67048 2 1 ack 40 ------- 0 2.0 0.0 6 15
+ 0.67048 1 0 ack 40 ------- 0 2.0 0.0 6 15
- 0.67048 1 0 ack 40 ------- 0 2.0 0.0 6 15
r 0.67248 1 0 ack 40 ------- 0 2.0 0.0 5 12
+ 0.67248 0 1 tcp 1040 ------- 0 0.0 2.0 11 18
+ 0.67248 0 1 tcp 1040 ------- 0 0.0 2.0 12 19
- 0.67248 0 1 tcp 1040 ------- 0 0.0 2.0 9 16
r 0.67416 0 1 tcp 1040 ------- 0 0.0 2.0 7 13
+ 0.67416 1 2 tcp 1040 ------- 0 0.0 2.0 7 13
- 0.67416 1 2 tcp 1040 ------- 0 0.0 2.0 7 13
r 0.6808 1 0 ack 40 ------- 0 2.0 0.0 6 15
+ 0.6808 0 1 tcp 1040 ------- 0 0.0 2.0 13 20
+ 0.6808 0 1 tcp 1040 ------- 0 0.0 2.0 14 21
- 0.6808 0 1 tcp 1040 ------- 0 0.0 2.0 10 17
r 0.68248 0 1 tcp 1040 ------- 0 0.0 2.0 8 14
+ 0.68248 1 2 tcp 1040 ------- 0 0.0 2.0 8 14
- 0.68248 1 2 tcp 1040 ------- 0 0.0 2.0 8 14
- 0.68912 0 1 tcp 1040 ------- 0 0.0 2.0 11 18
r 0.6908 0 1 tcp 1040 ------- 0 0.0 2.0 9 16
+ 0.6908 1 2 tcp 1040 ------- 0 0.0 2.0 9 16
- 0.6908 1 2 tcp 1040 ------- 0 0.0 2.0 9 16
r 0.69248 1 2 tcp 1040 ------- 0 0.0 2.0 7 13
+ 0.69248 2 1 ack 40 ------- 0 2.0 0.0 7 22
- 0.69248 2 1 ack 40 ------- 0 2.0 0.0 7 22
- 0.69744 0 1 tcp 1040 ------- 0 0.0 2.0 12 19
r 0.69912 0 1 tcp 1040 ------- 0 0.0 2.0 10 17
+ 0.69912 1 2 tcp 1040 ------- 0 0.0 2.0 10 17
- 0.69912 1 2 tcp 1040 ------- 0 0.0 2.0 10 17
r 0.7008 1 2 tcp 1040 ------- 0 0.0 2.0 8 14
+ 0.7008 2 1 ack 40 ------- 0 2.0 0.0 8 23
- 0.7008 2 1 ack 40 ------- 0 2.0 0.0 8 23
r 0.7028 2 1 ack 40 ------- 0 2.0 0.0 7 22
+ 0.7028 1 0 ack 40 ------- 0 2.0 0.0 7 22
- 0.7028 1 0 ack 40 ------- 0 2.0 0.0 7 22
- 0.70576 0 1 tcp 1040 ------- 0 0.0 2.0 13 20
r 0.70744 0 1 tcp 1040 ------- 0 0.0 2.0 11 18
+ 0.70744 1 2 tcp 1040 ------- 0 0.0 2.0 11 18
- 0.70744 1 2 tcp 1040 ------- 0 0.0 2.0 11 18
r 0.70912 1 2 tcp 1040 ------- 0 0.0 2.0 9 16
+ 0.70912 2 1 ack 40 ------- 0 2.0 0.0 9 24
- 0.70912 2 1 ack 40 ------- 0 2.0 0.0 9 24
r 0.71112 2 1 ack 40 ------- 0 2.0 0.0 8 23
+ 0.71112 1 0 ack 40 ------- 0 2.0 0.0 8 23
- 0.71112 1 0 ack 40 ------- 0 2.0 0.0 8 23
r 0.71312 1 0 ack 40 ------- 0 2.0 0.0 7 22
+ 0.71312 0 1 tcp 1040 ------- 0 0.0 2.0 15 25
+ 0.71312 0 1 tcp 1040 ------- 0 0.0 2.0 16 26
- 0.71408 0 1 tcp 1040 ------- 0 0.0 2.0 14 21
r 0.71576 0 1 tcp 1040 ------- 0 0.0 2.0 12 19
+ 0.71576 1 2 tcp 1040 ------- 0 0.0 2.0 12 19
- 0.71576 1 2 tcp 1040 ------- 0 0.0 2.0 12 19
r 0.71744 1 2 tcp 1040 ------- 0 0.0 2.0 10 17
+ 0.71744 2 1 ack 40 ------- 0 2.0 0.0 10 27
- 0.71744 2 1 ack 40 ------- 0 2.0 0.0 10 27
r 0.71944 2 1 ack 40 ------- 0 2.0 0.0 9 24
+ 0.71944 1 0 ack 40 ------- 0 2.0 0.0 9 24
- 0.71944 1 0 ack 40 ------- 0 2.0 0.0 9 24
r 0.72144 1 0 ack 40 ------- 0 2.0 0.0 8 23
+ 0.72144 0 1 tcp 1040 ------- 0 0.0 2.0 17 28
+ 0.72144 0 1 tcp 1040 ------- 0 0.0 2.0 18 29
- 0.7224 0 1 tcp 1040 ------- 0 0.0 2.0 15 25
r 0.72408 0 1 tcp 1040 ------- 0 0.0 2.0 13 20
+ 0.72408 1 2 tcp 1040 ------- 0 0.0 2.0 13 20
- 0.72408 1 2 tcp 1040 ------- 0 0.0 2.0 13 20
r 0.72576 1 2 tcp 1040 ------- 0 0.0 2.0 11 18
+ 0.72576 2 1 ack 40 ------- 0 2.0 0.0 11 30
- 0.72576 2 1 ack 40 ------- 0 2.0 0.0 11 30
r 0.72776 2 1 ack 40 ------- 0 2.0 0.0 10 27
+ 0.72776 1 0 ack 40 ------- 0 2.0 0.0 10 27
- 0.72776 1 0 ack 40 ------- 0 2.0 0.0 10 27
r 0.72976 1 0 ack 40 ------- 0 2.0 0.0 9 24
+ 0.72976 0 1 tcp 1040 ------- 0 0.0 2.0 19 31
+ 0.72976 0 1 tcp 1040 ------- 0 0.0 2.0 20 32
- 0.73072 0 1 tcp 1040 ------- 0 0.0 2.0 16 26
r 0.7324 0 1 tcp 1040 ------- 0 0.0 2.0 14 21
+ 0.7324 1 2 tcp 1040 ------- 0 0.0 2.0 14 21
- 0.7324 1 2 tcp 1040 ------- 0 0.0 2.0 14 21
r 0.73408 1 2 tcp 1040 ------- 0 0.0 2.0 12 19
+ 0.73408 2 1 ack 40 ------- 0 2.0 0.0 12 33
- 0.73408 2 1 ack 40 ------- 0 2.0 0.0 12 33
r 0.73608 2 1 ack 40 ------- 0 2.0 0.0 11 30
+ 0.73608 1 0 ack 40 ------- 0 2.0 0.0 11 30
- 0.73608 1 0 ack 40 ------- 0 2.0 0.0 11 30
r 0.73808 1 0 ack 40 ------- 0 2.0 0.0 10 27
+ 0.73808 0 1 tcp 1040 ------- 0 0.0 2.0 21 34
+ 0.73808 0 1 tcp 1040 ------- 0 0.0 2.0 22 35
- 0.73904 0 1 tcp 1040 ------- 0 0.0 2.0 17 28
r 0.74072 0 1 tcp 1040 ------- 0 0.0 2.0 15 25
+ 0.74072 1 2 tcp 1040 ------- 0 0.0 2.0 15 25
- 0.74072 1 2 tcp 1040 ------- 0 0.0 2.0 15 25
r 0.7424 1 2 tcp 1040 ------- 0 0.0 2.0 13 20
+ 0.7424 2 1 ack 40 ------- 0 2.0 0.0 13 36
- 0.7424 2 1 ack 40 ------- 0 2.0 0.0 13 36
r 0.7444 2 1 ack 40 ------- 0 2.0 0.0 12 33
+ 0.7444 1 0 ack 40 ------- 0 2.0 0.0 12 33
- 0.7444 1 0 ack 40 ------- 0 2.0 0.0 12 33
r 0.7464 1 0 ack 40 ------- 0 2.0 0.0 11 30
+ 0.7464 0 1 tcp 1040 ------- 0 0.0 2.0 23 37
+ 0.7464 0 1 tcp 1040 ------- 0 0.0 2.0 24 38
- 0.74736 0 1 tcp 1040 ------- 0 0.0 2.0 18 29
r 0.74904 0 1 tcp 1040 ------- 0 0.0 2.0 16 26
+ 0.74904 1 2 tcp 1040 ------- 0 0.0 2.0 16 26
- 0.74904 1 2 tcp 1040 ------- 0 0.0 2.0 16 26
r 0.75072 1 2 tcp 1040 ------- 0 0.0 2.0 14 21
+ 0.75072 2 1 ack 40 ------- 0 2.0 0.0 14 39
- 0.75072 2 1 ack 40 ------- 0 2.0 0.0 14 39
r 0.75272 2 1 ack 40 ------- 0 2.0 0.0 13 36
+ 0.75272 1 0 ack 40 ------- 0 2.0 0.0 13 36
- 0.75272 1 0 ack 40 ------- 0 2.0 0.0 13 36
r 0.75472 1 0 ack 40 ------- 0 2.0 0.0 12 33
+ 0.75472 0 1 tcp 1040 ------- 0 0.0 2.0 25 40
+ 0.75472 0 1 tcp 1040 ------- 0 0.0 2.0 26 41
- 0.75568 0 1 tcp 1040 ------- 0 0.0 2.0 19 31
r 0.75736 0 1 tcp 1040 ------- 0 0.0 2.0 17 28
+ 0.75736 1 2 tcp 1040 ------- 0 0.0 2.0 17 28
- 0.75736 1 2 tcp 1040 ------- 0 0.0 2.0 17 28
r 0.75904 1 2 tcp 1040 ------- 0 0.0 2.0 15 25
+ 0.75904 2 1 ack 40 ------- 0 2.0 0.0 15 42
- 0.75904 2 1 ack 40 ------- 0 2.0 0.0 15 42
r 0.76104 2 1 ack 40 ------- 0 2.0 0.0 14 39
+ 0.76104 1 0 ack 40 ------- 0 2.0 0.0 14 39
- 0.76104 1 0 ack 40 ------- 0 2.0 0.0 14 39
r 0.76304 1 0 ack 40 ------- 0 2.0 0.0 13 36
+ 0.76304 0 1 tcp 1040 ------- 0 0.0 2.0 27 43
+ 0.76304 0 1 tcp 1040 ------- 0 0.0 2.0 28 44
- 0.764 0 1 tcp 1040 ------- 0 0.0 2.0 20 32
r 0.76568 0 1 tcp 1040 ------- 0 0.0 2.0 18 29
+ 0.76568 1 2 tcp 1040 ------- 0 0.0 2.0 18 29
- 0.76568 1 2 tcp 1040 ------- 0 0.0 2.0 18 29
r 0.76736 1 2 tcp 1040 ------- 0 0.0 2.0 16 26
+ 0.76736 2 1 ack 40 ------- 0 2.0 0.0 16 45
- 0.76736 2 1 ack 40 ------- 0 2.0 0.0 16 45
r 0.76936 2 1 ack 40 ------- 0 2.0 0.0 15 42
+ 0.76936 1 0 ack 40 ------- 0 2.0 0.0 15 42
- 0.76936 1 0 ack 40 ------- 0 2.0 0.0 15 42
r 0.77136 1 0 ack 40 ------- 0 2.0 0.0 14 39
+ 0.77136 0 1 tcp 1040 ------- 0 0.0 2.0 29 46
+ 0.77136 0 1 tcp 1040 ------- 0 0.0 2.0 30 47
- 0.77232 0 1 tcp 1040 ------- 0 0.0 2.0 21 34
r 0.774 0 1 tcp 1040 ------- 0 0.0 2.0 19 31
+ 0.774 1 2 tcp 1040 ------- 0 0.0 2.0 19 31
- 0.774 1 2 tcp 1040 ------- 0 0.0 2.0 19 31
r 0.77568 1 2 tcp 1040 ------- 0 0.0 2.0 17 28
+ 0.77568 2 1 ack 40 ------- 0 2.0 0.0 17 48
- 0.77568 2 1 ack 40 ------- 0 2.0 0.0 17 48
r 0.77768 2 1 ack 40 ------- 0 2.0 0.0 16 45
+ 0.77768 1 0 ack 40 ------- 0 2.0 0.0 16 45
- 0.77768 1 0 ack 40 ------- 0 2.0 0.0 16 45
r 0.77968 1 0 ack 40 ------- 0 2.0 0.0 15 42
+ 0.77968 0 1 tcp 1040 ------- 0 0.0 2.0 31 49
+ 0.77968 0 1 tcp 1040 ------- 0 0.0 2.0 32 50
- 0.78064 0 1 tcp 1040 ------- 0 0.0 2.0 22 35
r 0.78232 0 1 tcp 1040 ------- 0 0.0 2.0 20 32
+ 0.78232 1 2 tcp 1040 ------- 0 0.0 2.0 20 32
- 0.78232 1 2 tcp 1040 ------- 0 0.0 2.0 20 32
r 0.784 1 2 tcp 1040 ------- 0 0.0 2.0 18 29
+ 0.784 2 1 ack 40 ------- 0 2.0 0.0 18 51
- 0.784 2 1 ack 40 ------- 0 2.0 0.0 18 51
r 0.786 2 1 ack 40 ------- 0 2.0 0.0 17 48
+ 0.786 1 0 ack 40 ------- 0 2.0 0.0 17 48
- 0.786 1 0 ack 40 ------- 0 2.0 0.0 17 48
r 0.788 1 0 ack 40 ------- 0 2.0 0.0 16 45
+ 0.788 0 1 tcp 1040 ------- 0 0.0 2.0 33 52
+ 0.788 0 1 tcp 1040 ------- 0 0.0 2.0 34 53
- 0.78896 0 1 tcp 1040 ------- 0 0.0 2.0 23 37
r 0.79064 0 1 tcp 1040 ------- 0 0.0 2.0 21 34
+ 0.79064 1 2 tcp 1040 ------- 0 0.0 2.0 21 34
- 0.79064 1 2 tcp 1040 ------- 0 0.0 2.0 21 34
r 0.79232 1 2 tcp 1040 ------- 0 0.0 2.0 19 31
+ 0.79232 2 1 ack 40 ------- 0 2.0 0.0 19 54
- 0.79232 2 1 ack 40 ------- 0 2.0 0.0 19 54
r 0.79432 2 1 ack 40 ------- 0 2.0 0.0 18 51
+ 0.79432 1 0 ack 40 ------- 0 2.0 0.0 18 51
- 0.79432 1 0 ack 40 ------- 0 2.0 0.0 18 51
r 0.79632 1 0 ack 40 ------- 0 2.0 0.0 17 48
+ 0.79632 0 1 tcp 1040 ------- 0 0.0 2.0 35 55
+ 0.79632 0 1 tcp 1040 ------- 0 0.0 2.0 36 56
- 0.79728 0 1 tcp 1040 ------- 0 0.0 2.0 24 38
r 0.79896 0 1 tcp 1040 ------- 0 0.0 2.0 22 35
+ 0.79896 1 2 tcp 1040 ------- 0 0.0 2.0 22 35
- 0.79896 1 2 tcp 1040 ------- 0 0.0 2.0 22 35
r 0.80064 1 2 tcp 1040 ------- 0 0.0 2.0 20 32
+ 0.80064 2 1 ack 40 ------- 0 2.0 0.0 20 57
- 0.80064 2 1 ack 40 ------- 0 2.0 0.0 20 57
r 0.80264 2 1 ack 40 ------- 0 2.0 0.0 19 54
+ 0.80264 1 0 ack 40 ------- 0 2.0 0.0 19 54
- 0.80264 1 0 ack 40 ------- 0 2.0 0.0 19 54
r 0.80464 1 0 ack 40 ------- 0 2.0 0.0 18 51
+ 0.80464 0 1 tcp 1040 ------- 0 0.0 2.0 37 58
+ 0.80464 0 1 tcp 1040 ------- 0 0.0 2.0 38 59
- 0.8056 0 1 tcp 1040 ------- 0 0.0 2.0 25 40
r 0.80728 0 1 tcp 1040 ------- 0 0.0 2.0 23 37
+ 0.80728 1 2 tcp 1040 ------- 0 0.0 2.0 23 37
- 0.80728 1 2 tcp 1040 ------- 0 0.0 2.0 23 37
r 0.80896 1 2 tcp 1040 ------- 0 0.0 2.0 21 34
+ 0.80896 2 1 ack 40 ------- 0 2.0 0.0 21 60
- 0.80896 2 1 ack 40 ------- 0 2.0 0.0 21 60
r 0.81096 2 1 ack 40 ------- 0 2.0 0.0 20 57
+ 0.81096 1 0 ack 40 ------- 0 2.0 0.0 20 57
- 0.81096 1 0 ack 40 ------- 0 2.0 0.0 20 57
r 0.81296 1 0 ack 40 ------- 0 2.0 0.0 19 54
+ 0.81296 0 1 tcp 1040 ------- 0 0.0 2.0 39 61
- 0.81392 0 1 tcp 1040 ------- 0 0.0 2.0 26 41
r 0.8156 0 1 tcp 1040 ------- 0 0.0 2.0 24 38
+ 0.8156 1 2 tcp 1040 ------- 0 0.0 2.0 24 38
- 0.8156 1 2 tcp 1040 ------- 0 0.0 2.0 24 38
r 0.81728 1 2 tcp 1040 ------- 0 0.0 2.0 22 35
+ 0.81728 2 1 ack 40 ------- 0 2.0 0.0 22 62
- 0.81728 2 1 ack 40 ------- 0 2.0 0.0 22 62
r 0.81928 2 1 ack 40 ------- 0 2.0 0.0 21 60
+ 0.81928 1 0 ack 40 ------- 0 2.0 0.0 21 60
- 0.81928 1 0 ack 40 ------- 0 2.0 0.0 21 60
r 0.82128 1 0 ack 40 ------- 0 2.0 0.0 20 57
+ 0.82128 0 1 tcp 1040 ------- 0 0.0 2.0 40 63
- 0.82224 0 1 tcp 1040 ------- 0 0.0 2.0 27 43
r 0.82392 0 1 tcp 1040 ------- 0 0.0 2.0 25 40
+ 0.82392 1 2 tcp 1040 ------- 0 0.0 2.0 25 40
- 0.82392 1 2 tcp 1040 ------- 0 0.0 2.0 25 40
r 0.8256 1 2 tcp 1040 ------- 0 0.0 2.0 23 37
+ 0.8256 2 1 ack 40 ------- 0 2.0 0.0 23 64
- 0.8256 2 1 ack 40 ------- 0 2.0 0.0 23 64
r 0.8276 2 1 ack 40 ------- 0 2.0 0.0 22 62
+ 0.8276 1 0 ack 40 ------- 0 2.0 0.0 22 62
- 0.8276 1 0 ack 40 ------- 0 2.0 0.0 22 62
r 0.8296 1 0 ack 40 ------- 0 2.0 0.0 21 60
+ 0.8296 0 1 tcp 1040 ------- 0 0.0 2.0 41 65
- 0.83056 0 1 tcp 1040 ------- 0 0.0 2.0 28 44
r 0.83224 0 1 tcp 1040 ------- 0 0.0 2.0 26 41
+ 0.83224 1 2 tcp 1040 ------- 0 0.0 2.0 26 41
- 0.83224 1 2 tcp 1040 ------- 0 0.0 2.0 26 41
r 0.83392 1 2 tcp 1040 ------- 0 0.0 2.0 24 38
+ 0.83392 2 1 ack 40 ------- 0 2.0 0.0 24 66
- 0.83392 2 1 ack 40 ------- 0 2.0 0.0 24 66
r 0.83592 2 1 ack 40 ------- 0 2.0 0.0 23 64
+ 0.83592 1 0 ack 40 ------- 0 2.0 0.0 23 64
- 0.83592 1 0 ack 40 ------- 0 2.0 0.0 23 64
r 0.83792 1 0 ack 40 ------- 0 2.0 0.0 22 62
+ 0.83792 0 1 tcp 1040 ------- 0 0.0 2.0 42 67
- 0.83888 0 1 tcp 1040 ------- 0 0.0 2.0 29 46
r 0.84056 0 1 tcp 1040 ------- 0 0.0 2.0 27 43
+ 0.84056 1 2 tcp 1040 ------- 0 0.0 2.0 27 43
- 0.84056 1 2 tcp 1040 ------- 0 0.0 2.0 27 43
r 0.84224 1 2 tcp 1040 ------- 0 0.0 2.0 25 40
+ 0.84224 2 1 ack 40 ------- 0 2.0 0.0 25 68
- 0.84224 2 1 ack 40 ------- 0 2.0 0.0 25 68
r 0.84424 2 1 ack 40 ------- 0 2.0 0.0 24 66
+ 0.84424 1 0 ack 40 ------- 0 2.0 0.0 24 66
- 0.84424 1 0 ack 40 ------- 0 2.0 0.0 24 66
r 0.84624 1 0 ack 40 ------- 0 2.0 0.0 23 64
+ 0.84624 0 1 tcp 1040 ------- 0 0.0 2.0 43 69
- 0.8472 0 1 tcp 1040 ------- 0 0.0 2.0 30 47
r 0.84888 0 1 tcp 1040 ------- 0 0.0 2.0 28 44
+ 0.84888 1 2 tcp 1040 ------- 0 0.0 2.0 28 44
- 0.84888 1 2 tcp 1040 ------- 0 0.0 2.0 28 44
r 0.85056 1 2 tcp 1040 ------- 0 0.0 2.0 26 41
+ 0.85056 2 1 ack 40 ------- 0 2.0 0.0 26 70
- 0.85056 2 1 ack 40 ------- 0 2.0 0.0 26 70
r 0.85256 2 1 ack 40 ------- 0 2.0 0.0 25 68
+ 0.85256 1 0 ack 40 ------- 0 2.0 0.0 25 68
- 0.85256 1 0 ack 40 ------- 0 2.0 0.0 25 68
r 0.85456 1 0 ack 40 ------- 0 2.0 0.0 24 66
+ 0.85456 0 1 tcp 1040 ------- 0 0.0 2.0 44 71
- 0.85552 0 1 tcp 1040 ------- 0 0.0 2.0 31 49
r 0.8572 0 1 tcp 1040 ------- 0 0.0 2.0 29 46
+ 0.8572 1 2 tcp 1040 ------- 0 0.0 2.0 29 46
- 0.8572 1 2 tcp 1040 ------- 0 0.0 2.0 29 46
r 0.85888 1 2 tcp 1040 ------- 0 0.0 2.0 27 43
+ 0.85888 2 1 ack 40 ------- 0 2.0 0.0 27 72
- 0.85888 2 1 ack 40 ------- 0 2.0 0.0 27 72
r 0.86088 2 1 ack 40 ------- 0 2.0 0.0 26 70
+ 0.86088 1 0 ack 40 ------- 0 2.0 0.0 26 70
- 0.86088 1 0 ack 40 ------- 0 2.0 0.0 26 70
r 0.86288 1 0 ack 40 ------- 0 2.0 0.0 25 68
+ 0.86288 0 1 tcp 1040 ------- 0 0.0 2.0 45 73
- 0.86384 0 1 tcp 1040 ------- 0 0.0 2.0 32 50
r 0.86552 0 1 tcp 1040 ------- 0 0.0 2.0 30 47
+ 0.86552 1 2 tcp 1040 ------- 0 0.0 2.0 30 47
- 0.86552 1 2 tcp 1040 ------- 0 0.0 2.0 30 47
r 0.8672 1 2 tcp 1040 ------- 0 0.0 2.0 28 44
+ 0.8672 2 1 ack 40 ------- 0 2.0 0.0 28 74
- 0.8672 2 1 ack 40 ------- 0 2.0 0.0 28 74
r 0.8692 2 1 ack 40 ------- 0 2.0 0.0 27 72
+ 0.8692 1 0 ack 40 ------- 0 2.0 0.0 27 72
- 0.8692 1 0 ack 40 ------- 0 2.0 0.0 27 72
r 0.8712 1 0 ack 40 ------- 0 2.0 0.0 26 70
+ 0.8712 0 1 tcp 1040 ------- 0 0.0 2.0 46 75
- 0.87216 0 1 tcp 1040 ------- 0 0.0 2.0 33 52
r 0.87384 0 1 tcp 1040 ------- 0 0.0 2.0 31 49
+ 0.87384 1 2 tcp 1040 ------- 0 0.0 2.0 31 49
- 0.87384 1 2 tcp 1040 ------- 0 0.0 2.0 31 49
r 0.87552 1 2 tcp 1040 ------- 0 0.0 2.0 29 46
+ 0.87552 2 1 ack 40 ------- 0 2.0 0.0 29 76
- 0.87552 2 1 ack 40 ------- 0 2.0 0.0 29 76
r 0.87752 2 1 ack 40 ------- 0 2.0 0.0 28 74
+ 0.87752 1 0 ack 40 ------- 0 2.0 0.0 28 74
- 0.87752 1 0 ack 40 ------- 0 2.0 0.0 28 74
r 0.87952 1 0 ack 40 ------- 0 2.0 0.0 27 72
+ 0.87952 0 1 tcp 1040 ------- 0 0.0 2.0 47 77
- 0.88048 0 1 tcp 1040 ------- 0 0.0 2.0 34 53
r 0.88216 0 1 tcp 1040 ------- 0 0.0 2.0 32 50
+ 0.88216 1 2 tcp 1040 ------- 0 0.0 2.0 32 50
- 0.88216 1 2 tcp 1040 ------- 0 0.0 2.0 32 50
r 0.88384 1 2 tcp 1040 ------- 0 0.0 2.0 30 47
+ 0.88384 2 1 ack 40 ------- 0 2.0 0.0 30 78
- 0.88384 2 1 ack 40 ------- 0 2.0 0.0 30 78
r 0.88584 2 1 ack 40 ------- 0 2.0 0.0 29 76
+ 0.88584 1 0 ack 40 ------- 0 2.0 0.0 29 76
- 0.88584 1 0 ack 40 ------- 0 2.0 0.0 29 76
r 0.88784 1 0 ack 40 ------- 0 2.0 0.0 28 74
+ 0.88784 0 1 tcp 1040 ------- 0 0.0 2.0 48 79
- 0.8888 0 1 tcp 1040 ------- 0 0.0 2.0 35 55
r 0.89048 0 1 tcp 1040 ------- 0 0.0 2.0 33 52
+ 0.89048 1 2 tcp 1040 ------- 0 0.0 2.0 33 52
- 0.89048 1 2 tcp 1040 ------- 0 0.0 2.0 33 52
r 0.89216 1 2 tcp 1040 ------- 0 0.0 2.0 31 49
+ 0.89216 2 1 ack 40 ------- 0 2.0 0.0 31 80
- 0.89216 2 1 ack 40 ------- 0 2.0 0.0 31 80
r 0.89416 2 1 ack 40 ------- 0 2.0 0.0 30 78
+ 0.89416 1 0 ack 40 ------- 0 2.0 0.0 30 78
- 0.89416 1 0 ack 40 ------- 0 2.0 0.0 30 78
r 0.89616 1 0 ack 40 ------- 0 2.0 0.0 29 76
+ 0.89616 0 1 tcp 1040 ------- 0 0.0 2.0 49 81
- 0.89712 0 1 tcp 1040 ------- 0 0.0 2.0 36 56
r 0.8988 0 1 tcp 1040 ------- 0 0.0 2.0 34 53
+ 0.8988 1 2 tcp 1040 ------- 0 0.0 2.0 34 53
- 0.8988 1 2 tcp 1040 ------- 0 0.0 2.0 34 53
r 0.90048 1 2 tcp 1040 ------- 0 0.0 2.0 32 50
+ 0.90048 2 1 ack 40 ------- 0 2.0 0.0 32 82
- 0.90048 2 1 ack 40 ------- 0 2.0 0.0 32 82
r 0.90248 2 1 ack 40 ------- 0 2.0 0.0 31 80
+ 0.90248 1 0 ack 40 ------- 0 2.0 0.0 31 80
- 0.90248 1 0 ack 40 ------- 0 2.0 0.0 31 80
r 0.90448 1 0 ack 40 ------- 0 2.0 0.0 30 78
+ 0.90448 0 1 tcp 1040 ------- 0 0.0 2.0 50 83
- 0.90544 0 1 tcp 1040 ------- 0 0.0 2.0 37 58
r 0.90712 0 1 tcp 1040 ------- 0 0.0 2.0 35 55
+ 0.90712 1 2 tcp 1040 ------- 0 0.0 2.0 35 55
- 0.90712 1 2 tcp 1040 ------- 0 0.0 2.0 35 55
r 0.9088 1 2 tcp 1040 ------- 0 0.0 2.0 33 52
+ 0.9088 2 1 ack 40 ------- 0 2.0 0.0 33 84
- 0.9088 2 1 ack 40 ------- 0 2.0 0.0 33 84
r 0.9108 2 1 ack 40 ------- 0 2.0 0.0 32 82
+ 0.9108 1 0 ack 40 ------- 0 2.0 0.0 32 82
- 0.9108 1 0 ack 40 ------- 0 2.0 0.0 32 82
r 0.9128 1 0 ack 40 ------- 0 2.0 0.0 31 80
+ 0.9128 0 1 tcp 1040 ------- 0 0.0 2.0 51 85
- 0.91376 0 1 tcp 1040 ------- 0 0.0 2.0 38 59
r 0.91544 0 1 tcp 1040 ------- 0 0.0 2.0 36 56
+ 0.91544 1 2 tcp 1040 ------- 0 0.0 2.0 36 56
- 0.91544 1 2 tcp 1040 ------- 0 0.0 2.0 36 56
r 0.91712 1 2 tcp 1040 ------- 0 0.0 2.0 34 53
+ 0.91712 2 1 ack 40 ------- 0 2.0 0.0 34 86
- 0.91712 2 1 ack 40 ------- 0 2.0 0.0 34 86
r 0.91912 2 1 ack 40 ------- 0 2.0 0.0 33 84
+ 0.91912 1 0 ack 40 ------- 0 2.0 0.0 33 84
- 0.91912 1 0 ack 40 ------- 0 2.0 0.0 33 84
r 0.92112 1 0 ack 40 ------- 0 2.0 0.0 32 82
+ 0.92112 0 1 tcp 1040 ------- 0 0.0 2.0 52 87
- 0.92208 0 1 tcp 1040 ------- 0 0.0 2.0 39 61
r 0.92376 0 1 tcp 1040 ------- 0 0.0 2.0 37 58
+ 0.92376 1 2 tcp 1040 ------- 0 0.0 2.0 37 58
- 0.92376 1 2 tcp 1040 ------- 0 0.0 2.0 37 58
r 0.92544 1 2 tcp 1040 ------- 0 0.0 2.0 35 55
+ 0.92544 2 1 ack 40 ------- 0 2.0 0.0 35 88
- 0.92544 2 1 ack 40 ------- 0 2.0 0.0 35 88
r 0.92744 2 1 ack 40 ------- 0 2.0 0.0 34 86
+ 0.92744 1 0 ack 40 ------- 0 2.0 0.0 34 86
- 0.92744 1 0 ack 40 ------- 0 2.0 0.0 34 86
r 0.92944 1 0 ack 40 ------- 0 2.0 0.0 33 84
+ 0.92944 0 1 tcp 1040 ------- 0 0.0 2.0 53 89
- 0.9304 0 1 tcp 1040 ------- 0 0.0 2.0 40 63
r 0.93208 0 1 tcp 1040 ------- 0 0.0 2.0 38 59
+ 0.93208 1 2 tcp 1040 ------- 0 0.0 2.0 38 59
- 0.93208 1 2 tcp 1040 ------- 0 0.0 2.0 38 59
r 0.93376 1 2 tcp 1040 ------- 0 0.0 2.0 36 56
+ 0.93376 2 1 ack 40 ------- 0 2.0 0.0 36 90
- 0.93376 2 1 ack 40 ------- 0 2.0 0.0 36 90
r 0.93576 2 1 ack 40 ------- 0 2.0 0.0 35 88
+ 0.93576 1 0 ack 40 ------- 0 2.0 0.0 35 88
- 0.93576 1 0 ack 40 ------- 0 2.0 0.0 35 88
r 0.93776 1 0 ack 40 ------- 0 2.0 0.0 34 86
+ 0.93776 0 1 tcp 1040 ------- 0 0.0 2.0 54 91
- 0.93872 0 1 tcp 1040 ------- 0 0.0 2.0 41 65
r 0.9404 0 1 tcp 1040 ------- 0 0.0 2.0 39 61
+ 0.9404 1 2 tcp 1040 ------- 0 0.0 2.0 39 61
- 0.9404 1 2 tcp 1040 ------- 0 0.0 2.0 39 61
r 0.94208 1 2 tcp 1040 ------- 0 0.0 2.0 37 58
+ 0.94208 2 1 ack 40 ------- 0 2.0 0.0 37 92
- 0.94208 2 1 ack 40 ------- 0 2.0 0.0 37 92
r 0.94408 2 1 ack 40 ------- 0 2.0 0.0 36 90
+ 0.94408 1 0 ack 40 ------- 0 2.0 0.0 36 90
- 0.94408 1 0 ack 40 ------- 0 2.0 0.0 36 90
r 0.94608 1 0 ack 40 ------- 0 2.0 0.0 35 88
+ 0.94608 0 1 tcp 1040 ------- 0 0.0 2.0 55 93
- 0.94704 0 1 tcp 1040 ------- 0 0.0 2.0 42 67
r 0.94872 0 1 tcp 1040 ------- 0 0.0 2.0 40 63
+ 0.94872 1 2 tcp 1040 ------- 0 0.0 2.0 40 63
- 0.94872 1 2 tcp 1040 ------- 0 0.0 2.0 40 63
r 0.9504 1 2 tcp 1040 ------- 0 0.0 2.0 38 59
+ 0.9504 2 1 ack 40 ------- 0 2.0 0.0 38 94
- 0.9504 2 1 ack 40 ------- 0 2.0 0.0 38 94
r 0.9524 2 1 ack 40 ------- 0 2.0 0.0 37 92
+ 0.9524 1 0 ack 40 ------- 0 2.0 0.0 37 92
- 0.9524 1 0 ack 40 ------- 0 2.0 0.0 37 92
r 0.9544 1 0 ack 40 ------- 0 2.0 0.0 36 90
+ 0.9544 0 1 tcp 1040 ------- 0 0.0 2.0 56 95
- 0.95536 0 1 tcp 1040 ------- 0 0.0 2.0 43 69
r 0.95704 0 1 tcp 1040 ------- 0 0.0 2.0 41 65
+ 0.95704 1 2 tcp 1040 ------- 0 0.0 2.0 41 65
- 0.95704 1 2 tcp 1040 ------- 0 0.0 2.0 41 65
r 0.95872 1 2 tcp 1040 ------- 0 0.0 2.0 39 61
+ 0.95872 2 1 ack 40 ------- 0 2.0 0.0 39 96
- 0.95872 2 1 ack 40 ------- 0 2.0 0.0 39 96
r 0.96072 2 1 ack 40 ------- 0 2.0 0.0 38 94
+ 0.96072 1 0 ack 40 ------- 0 2.0 0.0 38 94
- 0.96072 1 0 ack 40 ------- 0 2.0 0.0 38 94
r 0.96272 1 0 ack 40 ------- 0 2.0 0.0 37 92
+ 0.96272 0 1 tcp 1040 ------- 0 0.0 2.0 57 97
- 0.96368 0 1 tcp 1040 ------- 0 0.0 2.0 44 71
r 0.96536 0 1 tcp 1040 ------- 0 0.0 2.0 42 67
+ 0.96536 1 2 tcp 1040 ------- 0 0.0 2.0 42 67
- 0.96536 1 2 tcp 1040 ------- 0 0.0 2.0 42 67
r 0.96704 1 2 tcp 1040 ------- 0 0.0 2.0 40 63
+ 0.96704 2 1 ack 40 ------- 0 2.0 0.0 40 98
- 0.96704 2 1 ack 40 ------- 0 2.0 0.0 40 98
r 0.96904 2 1 ack 40 ------- 0 2.0 0.0 39 96
+ 0.96904 1 0 ack 40 ------- 0 2.0 0.0 39 96
- 0.96904 1 0 ack 40 ------- 0 2.0 0.0 39 96
r 0.97104 1 0 ack 40 ------- 0 2.0 0.0 38 94
+ 0.97104 0 1 tcp 1040 ------- 0 0.0 2.0 58 99
- 0.972 0 1 tcp 1040 ------- 0 0.0 2.0 45 73
r 0.97368 0 1 tcp 1040 ------- 0 0.0 2.0 43 69
+ 0.97368 1 2 tcp 1040 ------- 0 0.0 2.0 43 69
- 0.97368 1 2 tcp 1040 ------- 0 0.0 2.0 43 69
r 0.97536 1 2 tcp 1040 ------- 0 0.0 2.0 41 65
+ 0.97536 2 1 ack 40 ------- 0 2.0 0.0 41 100
- 0.97536 2 1 ack 40 ------- 0 2.0 0.0 41 100
r 0.97736 2 1 ack 40 ------- 0 2.0 0.0 40 98
+ 0.97736 1 0 ack 40 ------- 0 2.0 0.0 40 98
- 0.97736 1 0 ack 40 ------- 0 2.0 0.0 40 98
r 0.97936 1 0 ack 40 ------- 0 2.0 0.0 39 96
+ 0.97936 0 1 tcp 1040 ------- 0 0.0 2.0 59 101
- 0.98032 0 1 tcp 1040 ------- 0 0.0 2.0 46 75
r 0.982 0 1 tcp 1040 ------- 0 0.0 2.0 44 71
+ 0.982 1 2 tcp 1040 ------- 0 0.0 2.0 44 71
- 0.982 1 2 tcp 1040 ------- 0 0.0 2.0 44 71
r 0.98368 1 2 tcp 1040 ------- 0 0.0 2.0 42 67
+ 0.98368 2 1 ack 40 ------- 0 2.0 0.0 42 102
- 0.98368 2 1 ack 40 ------- 0 2.0 0.0 42 102
r 0.98568 2 1 ack 40 ------- 0 2.0 0.0 41 100
+ 0.98568 1 0 ack 40 ------- 0 2.0 0.0 41 100
- 0.98568 1 0 ack 40 ------- 0 2.0 0.0 41 100
r 0.98768 1 0 ack 40 ------- 0 2.0 0.0 40 98
+ 0.98768 0 1 tcp 1040 ------- 0 0.0 2.0 60 103
- 0.98864 0 1 tcp 1040 ------- 0 0.0 2.0 47 77
r 0.99032 0 1 tcp 1040 ------- 0 0.0 2.0 45 73
+ 0.99032 1 2 tcp 1040 ------- 0 0.0 2.0 45 73
- 0.99032 1 2 tcp 1040 ------- 0 0.0 2.0 45 73
r 0.992 1 2 tcp 1040 ------- 0 0.0 2.0 43 69
+ 0.992 2 1 ack 40 ------- 0 2.0 0.0 43 104
- 0.992 2 1 ack 40 ------- 0 2.0 0.0 43 104
r 0.994 2 1 ack 40 ------- 0 2.0 0.0 42 102
+ 0.994 1 0 ack 40 ------- 0 2.0 0.0 42 102
- 0.994 1 0 ack 40 ------- 0 2.0 0.0 42 102
r 0.996 1 0 ack 40 ------- 0 2.0 0.0 41 100
+ 0.996 0 1 tcp 1040 ------- 0 0.0 2.0 61 105
- 0.99696 0 1 tcp 1040 ------- 0 0.0 2.0 48 79
r 0.99864 0 1 tcp 1040 ------- 0 0.0 2.0 46 75
+ 0.99864 1 2 tcp 1040 ------- 0 0.0 2.0 46 75
- 0.99864 1 2 tcp 1040 ------- 0 0.0 2.0 46 75
r 1.00032 1 2 tcp 1040 ------- 0 0.0 2.0 44 71
+ 1.00032 2 1 ack 40 ------- 0 2.0 0.0 44 106
- 1.00032 2 1 ack 40 ------- 0 2.0 0.0 44 106
r 1.00232 2 1 ack 40 ------- 0 2.0 0.0 43 104
+ 1.00232 1 0 ack 40 ------- 0 2.0 0.0 43 104
- 1.00232 1 0 ack 40 ------- 0 2.0 0.0 43 104
r 1.00432 1 0 ack 40 ------- 0 2.0 0.0 42 102
+ 1.00432 0 1 tcp 1040 ------- 0 0.0 2.0 62 107
- 1.00528 0 1 tcp 1040 ------- 0 0.0 2.0 49 81
r 1.00696 0 1 tcp 1040 ------- 0 0.0 2.0 47 77
+ 1.00696 1 2 tcp 1040 ------- 0 0.0 2.0 47 77
- 1.00696 1 2 tcp 1040 ------- 0 0.0 2.0 47 77
r 1.00864 1 2 tcp 1040 ------- 0 0.0 2.0 45 73
+ 1.00864 2 1 ack 40 ------- 0 2.0 0.0 45 108
- 1.00864 2 1 ack 40 ------- 0 2.0 0.0 45 108
r 1.01064 2 1 ack 40 ------- 0 2.0 0.0 44 106
+ 1.01064 1 0 ack 40 ------- 0 2.0 0.0 44 106
- 1.01064 1 0 ack 40 ------- 0 2.0 0.0 44 106
r 1.01264 1 0 ack 40 ------- 0 2.0 0.0 43 104
+ 1.01264 0 1 tcp 1040 ------- 0 0.0 2.0 63 109
- 1.0136 0 1 tcp 1040 ------- 0 0.0 2.0 50 83
r 1.01528 0 1 tcp 1040 ------- 0 0.0 2.0 48 79
+ 1.01528 1 2 tcp 1040 ------- 0 0.0 2.0 48 79
- 1.01528 1 2 tcp 1040 ------- 0 0.0 2.0 48 79
r 1.01696 1 2 tcp 1040 ------- 0 0.0 2.0 46 75
+ 1.01696 2 1 ack 40 ------- 0 2.0 0.0 46 110
- 1.01696 2 1 ack 40 ------- 0 2.0 0.0 46 110
r 1.01896 2 1 ack 40 ------- 0 2.0 0.0 45 108
+ 1.01896 1 0 ack 40 ------- 0 2.0 0.0 45 108
- 1.01896 1 0 ack 40 ------- 0 2.0 0.0 45 108
r 1.02096 1 0 ack 40 ------- 0 2.0 0.0 44 106
+ 1.02096 0 1 tcp 1040 ------- 0 0.0 2.0 64 111
- 1.02192 0 1 tcp 1040 ------- 0 0.0 2.0 51 85
r 1.0236 0 1 tcp 1040 ------- 0 0.0 2.0 49 81
+ 1.0236 1 2 tcp 1040 ------- 0 0.0 2.0 49 81
- 1.0236 1 2 tcp 1040 ------- 0 0.0 2.0 49 81
r 1.02528 1 2 tcp 1040 ------- 0 0.0 2.0 47 77
+ 1.02528 2 1 ack 40 ------- 0 2.0 0.0 47 112
- 1.02528 2 1 ack 40 ------- 0 2.0 0.0 47 112
r 1.02728 2 1 ack 40 ------- 0 2.0 0.0 46 110
+ 1.02728 1 0 ack 40 ------- 0 2.0 0.0 46 110
- 1.02728 1 0 ack 40 ------- 0 2.0 0.0 46 110
r 1.02928 1 0 ack 40 ------- 0 2.0 0.0 45 108
+ 1.02928 0 1 tcp 1040 ------- 0 0.0 2.0 65 113
- 1.03024 0 1 tcp 1040 ------- 0 0.0 2.0 52 87
r 1.03192 0 1 tcp 1040 ------- 0 0.0 2.0 50 83
+ 1.03192 1 2 tcp 1040 ------- 0 0.0 2.0 50 83
- 1.03192 1 2 tcp 1040 ------- 0 0.0 2.0 50 83
r 1.0336 1 2 tcp 1040 ------- 0 0.0 2.0 48 79
+ 1.0336 2 1 ack 40 ------- 0 2.0 0.0 48 114
- 1.0336 2 1 ack 40 ------- 0 2.0 0.0 48 114
r 1.0356 2 1 ack 40 ------- 0 2.0 0.0 47 112
+ 1.0356 1 0 ack 40 ------- 0 2.0 0.0 47 112
- 1.0356 1 0 ack 40 ------- 0 2.0 0.0 47 112
r 1.0376 1 0 ack 40 ------- 0 2.0 0.0 46 110
+ 1.0376 0 1 tcp 1040 ------- 0 0.0 2.0 66 115
- 1.03856 0 1 tcp 1040 ------- 0 0.0 2.0 53 89
r 1.04024 0 1 tcp 1040 ------- 0 0.0 2.0 51 85
+ 1.04024 1 2 tcp 1040 ------- 0 0.0 2.0 51 85
- 1.04024 1 2 tcp 1040 ------- 0 0.0 2.0 51 85
r 1.04192 1 2 tcp 1040 ------- 0 0.0 2.0 49 81
+ 1.04192 2 1 ack 40 ------- 0 2.0 0.0 49 116
- 1.04192 2 1 ack 40 ------- 0 2.0 0.0 49 116
r 1.04392 2 1 ack 40 ------- 0 2.0 0.0 48 114
+ 1.04392 1 0 ack 40 ------- 0 2.0 0.0 48 114
- 1.04392 1 0 ack 40 ------- 0 2.0 0.0 48 114
r 1.04592 1 0 ack 40 ------- 0 2.0 0.0 47 112
+ 1.04592 0 1 tcp 1040 ------- 0 0.0 2.0 67 117
- 1.04688 0 1 tcp 1040 ------- 0 0.0 2.0 54 91
r 1.04856 0 1 tcp 1040 ------- 0 0.0 2.0 52 87
+ 1.04856 1 2 tcp 1040 ------- 0 0.0 2.0 52 87
- 1.04856 1 2 tcp 1040 ------- 0 0.0 2.0 52 87
r 1.05024 1 2 tcp 1040 ------- 0 0.0 2.0 50 83
+ 1.05024 2 1 ack 40 ------- 0 2.0 0.0 50 118
- 1.05024 2 1 ack 40 ------- 0 2.0 0.0 50 118
r 1.05224 2 1 ack 40 ------- 0 2.0 0.0 49 116
+ 1.05224 1 0 ack 40 ------- 0 2.0 0.0 49 116
- 1.05224 1 0 ack 40 ------- 0 2.0 0.0 49 116
r 1.05424 1 0 ack 40 ------- 0 2.0 0.0 48 114
+ 1.05424 0 1 tcp 1040 ------- 0 0.0 2.0 68 119
- 1.0552 0 1 tcp 1040 ------- 0 0.0 2.0 55 93
r 1.05688 0 1 tcp 1040 ------- 0 0.0 2.0 53 89
+ 1.05688 1 2 tcp 1040 ------- 0 0.0 2.0 53 89
- 1.05688 1 2 tcp 1040 ------- 0 0.0 2.0 53 89
r 1.05856 1 2 tcp 1040 ------- 0 0.0 2.0 51 85
+ 1.05856 2 1 ack 40 ------- 0 2.0 0.0 51 120
- 1.05856 2 1 ack 40 ------- 0 2.0 0.0 51 120
r 1.06056 2 1 ack 40 ------- 0 2.0 0.0 50 118
+ 1.06056 1 0 ack 40 ------- 0 2.0 0.0 50 118
- 1.06056 1 0 ack 40 ------- 0 2.0 0.0 50 118
r 1.06256 1 0 ack 40 ------- 0 2.0 0.0 49 116
+ 1.06256 0 1 tcp 1040 ------- 0 0.0 2.0 69 121
- 1.06352 0 1 tcp 1040 ------- 0 0.0 2.0 56 95
r 1.0652 0 1 tcp 1040 ------- 0 0.0 2.0 54 91
+ 1.0652 1 2 tcp 1040 ------- 0 0.0 2.0 54 91
- 1.0652 1 2 tcp 1040 ------- 0 0.0 2.0 54 91
r 1.06688 1 2 tcp 1040 ------- 0 0.0 2.0 52 87
+ 1.06688 2 1 ack 40 ------- 0 2.0 0.0 52 122
- 1.06688 2 1 ack 40 ------- 0 2.0 0.0 52 122
r 1.06888 2 1 ack 40 ------- 0 2.0 0.0 51 120
+ 1.06888 1 0 ack 40 ------- 0 2.0 0.0 51 120
- 1.06888 1 0 ack 40 ------- 0 2.0 0.0 51 120