s 0.176673288 _0_ RTR  --- 0 message 32 [0 0 0 0] ------- [0:255 -1:255 32 0] 
r 0.177853426 _3_ RTR  --- 0 message 32 [0 ffffffff 0 800] ------- [0:255 -1:255 32 0] 
r 0.177853483 _6_ RTR  --- 0 message 32 [0 ffffffff 0 800] ------- [0:255 -1:255 32 0] 
r 0.177853557 _7_ RTR  --- 0 message 32 [0 ffffffff 0 800] ------- [0:255 -1:255 32 0] 
r 0.177853647 _1_ RTR  --- 0 message 32 [0 ffffffff 0 800] ------- [0:255 -1:255 32 0] 
r 0.177853956 _4_ RTR  --- 0 message 32 [0 ffffffff 0 800] ------- [0:255 -1:255 32 0] 
r 0.177854034 _2_ RTR  --- 0 message 32 [0 ffffffff 0 800] ------- [0:255 -1:255 32 0] 
s 0.332527381 _9_ RTR  --- 1 message 32 [0 0 0 0] ------- [9:255 -1:255 32 0] 
r 0.333687898 _5_ RTR  --- 1 message 32 [0 ffffffff 9 800] ------- [9:255 -1:255 32 0] 
r 0.333688214 _4_ RTR  --- 1 message 32 [0 ffffffff 9 800] ------- [9:255 -1:255 32 0] 
s 0.472690914 _5_ RTR  --- 2 message 32 [0 0 0 0] ------- [5:255 -1:255 32 0] 
r 0.473531273 _4_ RTR  --- 2 message 32 [0 ffffffff 5 800] ------- [5:255 -1:255 32 0] 
r 0.473531287 _2_ RTR  --- 2 message 32 [0 ffffffff 5 800] ------- [5:255 -1:255 32 0] 
r 0.473531431 _9_ RTR  --- 2 message 32 [0 ffffffff 5 800] ------- [5:255 -1:255 32 0] 
r 0.473531681 _7_ RTR  --- 2 message 32 [0 ffffffff 5 800] ------- [5:255 -1:255 32 0] 
s 0.622819275 _7_ RTR  --- 3 message 32 [0 0 0 0] ------- [7:255 -1:255 32 0] 
r 0.624219412 _6_ RTR  --- 3 message 32 [0 ffffffff 7 800] ------- [7:255 -1:255 32 0] 
r 0.624219416 _3_ RTR  --- 3 message 32 [0 ffffffff 7 800] ------- [7:255 -1:255 32 0] 
r 0.624219499 _1_ RTR  --- 3 message 32 [0 ffffffff 7 800] ------- [7:255 -1:255 32 0] 
r 0.624219544 _0_ RTR  --- 3 message 32 [0 ffffffff 7 800] ------- [7:255 -1:255 32 0] 
r 0.624219720 _4_ RTR  --- 3 message 32 [0 ffffffff 7 800] ------- [7:255 -1:255 32 0] 
r 0.624219752 _2_ RTR  --- 3 message 32 [0 ffffffff 7 800] ------- [7:255 -1:255 32 0] 
r 0.624220042 _5_ RTR  --- 3 message 32 [0 ffffffff 7 800] ------- [7:255 -1:255 32 0] 
s 0.628095138 _3_ RTR  --- 4 message 32 [0 0 0 0] ------- [3:255 -1:255 32 0] 
r 0.628955275 _6_ RTR  --- 4 message 32 [0 ffffffff 3 800] ------- [3:255 -1:255 32 0] 
r 0.628955275 _0_ RTR  --- 4 message 32 [0 ffffffff 3 800] ------- [3:255 -1:255 32 0] 
r 0.628955279 _7_ RTR  --- 4 message 32 [0 ffffffff 3 800] ------- [3:255 -1:255 32 0] 
r 0.628955438 _1_ RTR  --- 4 message 32 [0 ffffffff 3 800] ------- [3:255 -1:255 32 0] 
r 0.628955671 _4_ RTR  --- 4 message 32 [0 ffffffff 3 800] ------- [3:255 -1:255 32 0] 
r 0.628955750 _2_ RTR  --- 4 message 32 [0 ffffffff 3 800] ------- [3:255 -1:255 32 0] 
s 0.889969083 _1_ RTR  --- 5 message 32 [0 0 0 0] ------- [1:255 -1:255 32 0] 
r 0.890869253 _6_ RTR  --- 5 message 32 [0 ffffffff 1 800] ------- [1:255 -1:255 32 0] 
r 0.890869307 _7_ RTR  --- 5 message 32 [0 ffffffff 1 800] ------- [1:255 -1:255 32 0] 
r 0.890869383 _3_ RTR  --- 5 message 32 [0 ffffffff 1 800] ------- [1:255 -1:255 32 0] 
r 0.890869442 _0_ RTR  --- 5 message 32 [0 ffffffff 1 800] ------- [1:255 -1:255 32 0] 
r 0.890869616 _2_ RTR  --- 5 message 32 [0 ffffffff 1 800] ------- [1:255 -1:255 32 0] 
r 0.890869695 _4_ RTR  --- 5 message 32 [0 ffffffff 1 800] ------- [1:255 -1:255 32 0] 
s 1.281772362 _6_ RTR  --- 6 message 32 [0 0 0 0] ------- [6:255 -1:255 32 0] 
r 1.283112499 _3_ RTR  --- 6 message 32 [0 ffffffff 6 800] ------- [6:255 -1:255 32 0] 
r 1.283112499 _7_ RTR  --- 6 message 32 [0 ffffffff 6 800] ------- [6:255 -1:255 32 0] 
r 1.283112532 _1_ RTR  --- 6 message 32 [0 ffffffff 6 800] ------- [6:255 -1:255 32 0] 
r 1.283112556 _0_ RTR  --- 6 message 32 [0 ffffffff 6 800] ------- [6:255 -1:255 32 0] 
r 1.283112944 _4_ RTR  --- 6 message 32 [0 ffffffff 6 800] ------- [6:255 -1:255 32 0] 
r 1.283112952 _2_ RTR  --- 6 message 32 [0 ffffffff 6 800] ------- [6:255 -1:255 32 0] 
s 1.607224385 _2_ RTR  --- 7 message 32 [0 0 0 0] ------- [2:255 -1:255 32 0] 
r 1.608104685 _4_ RTR  --- 7 message 32 [0 ffffffff 2 800] ------- [2:255 -1:255 32 0] 
r 1.608104758 _5_ RTR  --- 7 message 32 [0 ffffffff 2 800] ------- [2:255 -1:255 32 0] 
r 1.608104862 _7_ RTR  --- 7 message 32 [0 ffffffff 2 800] ------- [2:255 -1:255 32 0] 
r 1.608104919 _1_ RTR  --- 7 message 32 [0 ffffffff 2 800] ------- [2:255 -1:255 32 0] 
r 1.608104976 _6_ RTR  --- 7 message 32 [0 ffffffff 2 800] ------- [2:255 -1:255 32 0] 
r 1.608104997 _3_ RTR  --- 7 message 32 [0 ffffffff 2 800] ------- [2:255 -1:255 32 0] 
r 1.608105131 _0_ RTR  --- 7 message 32 [0 ffffffff 2 800] ------- [2:255 -1:255 32 0] 
s 1.638902377 _4_ RTR  --- 8 message 32 [0 0 0 0] ------- [4:255 -1:255 32 0] 
r 1.640002677 _2_ RTR  --- 8 message 32 [0 ffffffff 4 800] ------- [4:255 -1:255 32 0] 
r 1.640002736 _5_ RTR  --- 8 message 32 [0 ffffffff 4 800] ------- [4:255 -1:255 32 0] 
r 1.640002821 _7_ RTR  --- 8 message 32 [0 ffffffff 4 800] ------- [4:255 -1:255 32 0] 
r 1.640002910 _3_ RTR  --- 8 message 32 [0 ffffffff 4 800] ------- [4:255 -1:255 32 0] 
r 1.640002959 _6_ RTR  --- 8 message 32 [0 ffffffff 4 800] ------- [4:255 -1:255 32 0] 
r 1.640002989 _1_ RTR  --- 8 message 32 [0 ffffffff 4 800] ------- [4:255 -1:255 32 0] 
r 1.640003044 _0_ RTR  --- 8 message 32 [0 ffffffff 4 800] ------- [4:255 -1:255 32 0] 
r 1.640003210 _9_ RTR  --- 8 message 32 [0 ffffffff 4 800] ------- [4:255 -1:255 32 0] 
s 1.675217011 _8_ RTR  --- 9 message 32 [0 0 0 0] ------- [8:255 -1:255 32 0] 
M 10.00000 0 (0.00, 0.00, 0.00), (20.00, 50.00), 2.50
s 10.000000000 _0_ AGT  --- 10 tcp 40 [0 0 0 0] ------- [0:0 1:0 32 0] [0 0] 0 0
r 10.000000000 _0_ RTR  --- 10 tcp 40 [0 0 0 0] ------- [0:0 1:0 32 0] [0 0] 0 0
s 10.000000000 _0_ RTR  --- 10 tcp 60 [0 0 0 0] ------- [0:0 1:0 32 1] [0 0] 0 0
s 10.000000000 _1_ AGT  --- 11 tcp 40 [0 0 0 0] ------- [1:1 2:0 32 0] [0 0] 0 0
r 10.000000000 _1_ RTR  --- 11 tcp 40 [0 0 0 0] ------- [1:1 2:0 32 0] [0 0] 0 0
s 10.000000000 _1_ RTR  --- 11 tcp 60 [0 0 0 0] ------- [1:1 2:0 32 2] [0 0] 0 0
r 10.005232569 _1_ AGT  --- 10 tcp 60 [13a 1 0 800] ------- [0:0 1:0 32 1] [0 0] 1 0
s 10.005232569 _1_ AGT  --- 12 ack 40 [0 0 0 0] ------- [1:0 0:0 32 0] [0 0] 0 0
r 10.005232569 _1_ RTR  --- 12 ack 40 [0 0 0 0] ------- [1:0 0:0 32 0] [0 0] 0 0
s 10.005232569 _1_ RTR  --- 12 ack 60 [0 0 0 0] ------- [1:0 0:0 32 0] [0 0] 0 0
r 10.007278169 _2_ AGT  --- 11 tcp 60 [13a 2 1 800] ------- [1:1 2:0 32 2] [0 0] 1 0
s 10.007278169 _2_ AGT  --- 13 ack 40 [0 0 0 0] ------- [2:0 1:1 32 0] [0 0] 0 0
r 10.007278169 _2_ RTR  --- 13 ack 40 [0 0 0 0] ------- [2:0 1:1 32 0] [0 0] 0 0
s 10.007278169 _2_ RTR  --- 13 ack 60 [0 0 0 0] ------- [2:0 1:1 32 1] [0 0] 0 0
r 10.009443769 _1_ AGT  --- 13 ack 60 [13a 1 2 800] ------- [2:0 1:1 32 1] [0 0] 1 0
s 10.009443769 _1_ AGT  --- 14 tcp 1040 [0 0 0 0] ------- [1:1 2:0 32 0] [1 0] 0 0
r 10.009443769 _1_ RTR  --- 14 tcp 1040 [0 0 0 0] ------- [1:1 2:0 32 0] [1 0] 0 0
s 10.009443769 _1_ RTR  --- 14 tcp 1060 [0 0 0 0] ------- [1:1 2:0 32 2] [1 0] 0 0
s 10.009443769 _1_ AGT  --- 15 tcp 1040 [0 0 0 0] ------- [1:1 2:0 32 0] [2 0] 0 0
r 10.009443769 _1_ RTR  --- 15 tcp 1040 [0 0 0 0] ------- [1:1 2:0 32 0] [2 0] 0 0
s 10.009443769 _1_ RTR  --- 15 tcp 1060 [0 0 0 0] ------- [1:1 2:0 32 2] [2 0] 0 0
r 10.013298282 _0_ AGT  --- 12 ack 60 [13a 0 1 800] ------- [1:0 0:0 32 0] [0 0] 1 0
s 10.013298282 _0_ AGT  --- 16 tcp 1040 [0 0 0 0] ------- [0:0 1:0 32 0] [1 0] 0 0
r 10.013298282 _0_ RTR  --- 16 tcp 1040 [0 0 0 0] ------- [0:0 1:0 32 0] [1 0] 0 0
s 10.013298282 _0_ RTR  --- 16 tcp 1060 [0 0 0 0] ------- [0:0 1:0 32 1] [1 0] 0 0
s 10.013298282 _0_ AGT  --- 17 tcp 1040 [0 0 0 0] ------- [0:0 1:0 32 0] [2 0] 0 0
r 10.013298282 _0_ RTR  --- 17 tcp 1040 [0 0 0 0] ------- [0:0 1:0 32 0] [2 0] 0 0
s 10.013298282 _0_ RTR  --- 17 tcp 1060 [0 0 0 0] ------- [0:0 1:0 32 1] [2 0] 0 0
r 10.023524241 _2_ AGT  --- 14 tcp 1060 [13a 2 1 800] ------- [1:1 2:0 32 2] [1 0] 1 0
s 10.023524241 _2_ AGT  --- 18 ack 40 [0 0 0 0] ------- [2:0 1:1 32 0] [1 0] 0 0
r 10.023524241 _2_ RTR  --- 18 ack 40 [0 0 0 0] ------- [2:0 1:1 32 0] [1 0] 0 0
s 10.023524241 _2_ RTR  --- 18 ack 60 [0 0 0 0] ------- [2:0 1:1 32 1] [1 0] 0 0
r 10.025629841 _1_ AGT  --- 18 ack 60 [13a 1 2 800] ------- [2:0 1:1 32 1] [1 0] 1 0
s 10.025629841 _1_ AGT  --- 19 tcp 1040 [0 0 0 0] ------- [1:1 2:0 32 0] [3 0] 0 0
r 10.025629841 _1_ RTR  --- 19 tcp 1040 [0 0 0 0] ------- [1:1 2:0 32 0] [3 0] 0 0
s 10.025629841 _1_ RTR  --- 19 tcp 1060 [0 0 0 0] ------- [1:1 2:0 32 2] [3 0] 0 0
s 10.025629841 _1_ AGT  --- 20 tcp 1040 [0 0 0 0] ------- [1:1 2:0 32 0] [4 0] 0 0
r 10.025629841 _1_ RTR  --- 20 tcp 1040 [0 0 0 0] ------- [1:1 2:0 32 0] [4 0] 0 0
s 10.025629841 _1_ RTR  --- 20 tcp 1060 [0 0 0 0] ------- [1:1 2:0 32 2] [4 0] 0 0
r 10.035755276 _1_ AGT  --- 16 tcp 1060 [13a 1 0 800] ------- [0:0 1:0 32 1] [1 0] 1 0
s 10.035755276 _1_ AGT  --- 21 ack 40 [0 0 0 0] ------- [1:0 0:0 32 0] [1 0] 0 0
r 10.035755276 _1_ RTR  --- 21 ack 40 [0 0 0 0] ------- [1:0 0:0 32 0] [1 0] 0 0
s 10.035755276 _1_ RTR  --- 21 ack 60 [0 0 0 0] ------- [1:0 0:0 32 0] [1 0] 0 0
r 10.045780876 _2_ AGT  --- 15 tcp 1060 [13a 2 1 800] ------- [1:1 2:0 32 2] [2 0] 1 0
s 10.045780876 _2_ AGT  --- 22 ack 40 [0 0 0 0] ------- [2:0 1:1 32 0] [2 0] 0 0
r 10.045780876 _2_ RTR  --- 22 ack 40 [0 0 0 0] ------- [2:0 1:1 32 0] [2 0] 0 0
s 10.045780876 _2_ RTR  --- 22 ack 60 [0 0 0 0] ------- [2:0 1:1 32 1] [2 0] 0 0
r 10.047886476 _1_ AGT  --- 22 ack 60 [13a 1 2 800] ------- [2:0 1:1 32 1] [2 0] 1 0
s 10.047886476 _1_ AGT  --- 23 tcp 1040 [0 0 0 0] ------- [1:1 2:0 32 0] [5 0] 0 0
r 10.047886476 _1_ RTR  --- 23 tcp 1040 [0 0 0 0] ------- [1:1 2:0 32 0] [5 0] 0 0
s 10.047886476 _1_ RTR  --- 23 tcp 1060 [0 0 0 0] ------- [1:1 2:0 32 2] [5 0] 0 0
s 10.047886476 _1_ AGT  --- 24 tcp 1040 [0 0 0 0] ------- [1:1 2:0 32 0] [6 0] 0 0
r 10.047886476 _1_ RTR  --- 24 tcp 1040 [0 0 0 0] ------- [1:1 2:0 32 0] [6 0] 0 0
s 10.047886476 _1_ RTR  --- 24 tcp 1060 [0 0 0 0] ------- [1:1 2:0 32 2] [6 0] 0 0
r 10.057952076 _2_ AGT  --- 19 tcp 1060 [13a 2 1 800] ------- [1:1 2:0 32 2] [3 0] 1 0
s 10.057952076 _2_ AGT  --- 25 ack 40 [0 0 0 0] ------- [2:0 1:1 32 0] [3 0] 0 0
r 10.057952076 _2_ RTR  --- 25 ack 40 [0 0 0 0] ------- [2:0 1:1 32 0] [3 0] 0 0
s 10.057952076 _2_ RTR  --- 25 ack 60 [0 0 0 0] ------- [2:0 1:1 32 1] [3 0] 0 0
r 10.059957676 _1_ AGT  --- 25 ack 60 [13a 1 2 800] ------- [2:0 1:1 32 1] [3 0] 1 0
s 10.059957676 _1_ AGT  --- 26 tcp 1040 [0 0 0 0] ------- [1:1 2:0 32 0] [7 0] 0 0
r 10.059957676 _1_ RTR  --- 26 tcp 1040 [0 0 0 0] ------- [1:1 2:0 32 0] [7 0] 0 0
s 10.059957676 _1_ RTR  --- 26 tcp 1060 [0 0 0 0] ------- [1:1 2:0 32 2] [7 0] 0 0
s 10.059957676 _1_ AGT  --- 27 tcp 1040 [0 0 0 0] ------- [1:1 2:0 32 0] [8 0] 0 0
r 10.059957676 _1_ RTR  --- 27 tcp 1040 [0 0 0 0] ------- [1:1 2:0 32 0] [8 0] 0 0
s 10.059957676 _1_ RTR  --- 27 tcp 1060 [0 0 0 0] ------- [1:1 2:0 32 2] [8 0] 0 0
r 10.070023276 _2_ AGT  --- 20 tcp 1060 [13a 2 1 800] ------- [1:1 2:0 32 2] [4 0] 1 0
s 10.070023276 _2_ AGT  --- 28 ack 40 [0 0 0 0] ------- [2:0 1:1 32 0] [4 0] 0 0
r 10.070023276 _2_ RTR  --- 28 ack 40 [0 0 0 0] ------- [2:0 1:1 32 0] [4 0] 0 0
s 10.070023276 _2_ RTR  --- 28 ack 60 [0 0 0 0] ------- [2:0 1:1 32 1] [4 0] 0 0
r 10.072188876 _1_ AGT  --- 28 ack 60 [13a 1 2 800] ------- [2:0 1:1 32 1] [4 0] 1 0
s 10.072188876 _1_ AGT  --- 29 tcp 1040 [0 0 0 0] ------- [1:1 2:0 32 0] [9 0] 0 0
r 10.072188876 _1_ RTR  --- 29 tcp 1040 [0 0 0 0] ------- [1:1 2:0 32 0] [9 0] 0 0
s 10.072188876 _1_ RTR  --- 29 tcp 1060 [0 0 0 0] ------- [1:1 2:0 32 2] [9 0] 0 0
s 10.072188876 _1_ AGT  --- 30 tcp 1040 [0 0 0 0] ------- [1:1 2:0 32 0] [10 0] 0 0
r 10.072188876 _1_ RTR  --- 30 tcp 1040 [0 0 0 0] ------- [1:1 2:0 32 0] [10 0] 0 0
s 10.072188876 _1_ RTR  --- 30 tcp 1060 [0 0 0 0] ------- [1:1 2:0 32 2] [10 0] 0 0
r 10.074193951 _0_ AGT  --- 21 ack 60 [13a 0 1 800] ------- [1:0 0:0 32 0] [1 0] 1 0
s 10.074193951 _0_ AGT  --- 31 tcp 1040 [0 0 0 0] ------- [0:0 1:0 32 0] [3 0] 0 0
r 10.074193951 _0_ RTR  --- 31 tcp 1040 [0 0 0 0] ------- [0:0 1:0 32 0] [3 0] 0 0
s 10.074193951 _0_ RTR  --- 31 tcp 1060 [0 0 0 0] ------- [0:0 1:0 32 1] [3 0] 0 0
s 10.074193951 _0_ AGT  --- 32 tcp 1040 [0 0 0 0] ------- [0:0 1:0 32 0] [4 0] 0 0
r 10.074193951 _0_ RTR  --- 32 tcp 1040 [0 0 0 0] ------- [0:0 1:0 32 0] [4 0] 0 0
s 10.074193951 _0_ RTR  --- 32 tcp 1060 [0 0 0 0] ------- [0:0 1:0 32 1] [4 0] 0 0
r 10.084239026 _1_ AGT  --- 17 tcp 1060 [13a 1 0 800] ------- [0:0 1:0 32 1] [2 0] 1 0
s 10.084239026 _1_ AGT  --- 33 ack 40 [0 0 0 0] ------- [1:0 0:0 32 0] [2 0] 0 0
r 10.084239026 _1_ RTR  --- 33 ack 40 [0 0 0 0] ------- [1:0 0:0 32 0] [2 0] 0 0
s 10.084239026 _1_ RTR  --- 33 ack 60 [0 0 0 0] ------- [1:0 0:0 32 0] [2 0] 0 0
r 10.094524626 _2_ AGT  --- 23 tcp 1060 [13a 2 1 800] ------- [1:1 2:0 32 2] [5 0] 1 0
s 10.094524626 _2_ AGT  --- 34 ack 40 [0 0 0 0] ------- [2:0 1:1 32 0] [5 0] 0 0
r 10.094524626 _2_ RTR  --- 34 ack 40 [0 0 0 0] ------- [2:0 1:1 32 0] [5 0] 0 0
s 10.094524626 _2_ RTR  --- 34 ack 60 [0 0 0 0] ------- [2:0 1:1 32 1] [5 0] 0 0
r 10.104570759 _2_ AGT  --- 24 tcp 1060 [13a 2 1 800] ------- [1:1 2:0 32 2] [6 0] 1 0
s 10.104570759 _2_ AGT  --- 35 ack 40 [0 0 0 0] ------- [2:0 1:1 32 0] [6 0] 0 0
r 10.104570759 _2_ RTR  --- 35 ack 40 [0 0 0 0] ------- [2:0 1:1 32 0] [6 0] 0 0
s 10.104570759 _2_ RTR  --- 35 ack 60 [0 0 0 0] ------- [2:0 1:1 32 1] [6 0] 0 0
r 10.106616359 _1_ AGT  --- 34 ack 60 [13a 1 2 800] ------- [2:0 1:1 32 1] [5 0] 1 0
s 10.106616359 _1_ AGT  --- 36 tcp 1040 [0 0 0 0] ------- [1:1 2:0 32 0] [11 0] 0 0
r 10.106616359 _1_ RTR  --- 36 tcp 1040 [0 0 0 0] ------- [1:1 2:0 32 0] [11 0] 0 0
s 10.106616359 _1_ RTR  --- 36 tcp 1060 [0 0 0 0] ------- [1:1 2:0 32 2] [11 0] 0 0
s 10.106616359 _1_ AGT  --- 37 tcp 1040 [0 0 0 0] ------- [1:1 2:0 32 0] [12 0] 0 0
r 10.106616359 _1_ RTR  --- 37 tcp 1040 [0 0 0 0] ------- [1:1 2:0 32 0] [12 0] 0 0
s 10.106616359 _1_ RTR  --- 37 tcp 1060 [0 0 0 0] ------- [1:1 2:0 32 2] [12 0] 0 0
r 10.108722493 _1_ AGT  --- 35 ack 60 [13a 1 2 800] ------- [2:0 1:1 32 1] [6 0] 1 0
s 10.108722493 _1_ AGT  --- 38 tcp 1040 [0 0 0 0] ------- [1:1 2:0 32 0] [13 0] 0 0
r 10.108722493 _1_ RTR  --- 38 tcp 1040 [0 0 0 0] ------- [1:1 2:0 32 0] [13 0] 0 0
s 10.108722493 _1_ RTR  --- 38 tcp 1060 [0 0 0 0] ------- [1:1 2:0 32 2] [13 0] 0 0
s 10.108722493 _1_ AGT  --- 39 tcp 1040 [0 0 0 0] ------- [1:1 2:0 32 0] [14 0] 0 0
r 10.108722493 _1_ RTR  --- 39 tcp 1040 [0 0 0 0] ------- [1:1 2:0 32 0] [14 0] 0 0
s 10.108722493 _1_ RTR  --- 39 tcp 1060 [0 0 0 0] ------- [1:1 2:0 32 2] [14 0] 0 0
r 10.118807925 _1_ AGT  --- 31 tcp 1060 [13a 1 0 800] ------- [0:0 1:0 32 1] [3 0] 1 0
s 10.118807925 _1_ AGT  --- 40 ack 40 [0 0 0 0] ------- [1:0 0:0 32 0] [3 0] 0 0
r 10.118807925 _1_ RTR  --- 40 ack 40 [0 0 0 0] ------- [1:0 0:0 32 0] [3 0] 0 0
s 10.118807925 _1_ RTR  --- 40 ack 60 [0 0 0 0] ------- [1:0 0:0 32 0] [3 0] 0 0
r 10.129113525 _2_ AGT  --- 26 tcp 1060 [13a 2 1 800] ------- [1:1 2:0 32 2] [7 0] 1 0
s 10.129113525 _2_ AGT  --- 41 ack 40 [0 0 0 0] ------- [2:0 1:1 32 0] [7 0] 0 0
r 10.129113525 _2_ RTR  --- 41 ack 40 [0 0 0 0] ------- [2:0 1:1 32 0] [7 0] 0 0
s 10.129113525 _2_ RTR  --- 41 ack 60 [0 0 0 0] ------- [2:0 1:1 32 1] [7 0] 0 0
r 10.139239344 _1_ AGT  --- 32 tcp 1060 [13a 1 0 800] ------- [0:0 1:0 32 1] [4 0] 1 0
s 10.139239344 _1_ AGT  --- 42 ack 40 [0 0 0 0] ------- [1:0 0:0 32 0] [4 0] 0 0
r 10.139239344 _1_ RTR  --- 42 ack 40 [0 0 0 0] ------- [1:0 0:0 32 0] [4 0] 0 0
s 10.139239344 _1_ RTR  --- 42 ack 60 [0 0 0 0] ------- [1:0 0:0 32 0] [4 0] 0 0
r 10.141265477 _1_ AGT  --- 41 ack 60 [13a 1 2 800] ------- [2:0 1:1 32 1] [7 0] 1 0
s 10.141265477 _1_ AGT  --- 43 tcp 1040 [0 0 0 0] ------- [1:1 2:0 32 0] [15 0] 0 0
r 10.141265477 _1_ RTR  --- 43 tcp 1040 [0 0 0 0] ------- [1:1 2:0 32 0] [15 0] 0 0
s 10.141265477 _1_ RTR  --- 43 tcp 1060 [0 0 0 0] ------- [1:1 2:0 32 2] [15 0] 0 0
s 10.141265477 _1_ AGT  --- 44 tcp 1040 [0 0 0 0] ------- [1:1 2:0 32 0] [16 0] 0 0
r 10.141265477 _1_ RTR  --- 44 tcp 1040 [0 0 0 0] ------- [1:1 2:0 32 0] [16 0] 0 0
s 10.141265477 _1_ RTR  --- 44 tcp 1060 [0 0 0 0] ------- [1:1 2:0 32 2] [16 0] 0 0
r 10.151611077 _2_ AGT  --- 27 tcp 1060 [13a 2 1 800] ------- [1:1 2:0 32 2] [8 0] 1 0
s 10.151611077 _2_ AGT  --- 45 ack 40 [0 0 0 0] ------- [2:0 1:1 32 0] [8 0] 0 0
r 10.151611077 _2_ RTR  --- 45 ack 40 [0 0 0 0] ------- [2:0 1:1 32 0] [8 0] 0 0
s 10.151611077 _2_ RTR  --- 45 ack 60 [0 0 0 0] ------- [2:0 1:1 32 1] [8 0] 0 0
r 10.153896677 _1_ AGT  --- 45 ack 60 [13a 1 2 800] ------- [2:0 1:1 32 1] [8 0] 1 0
s 10.153896677 _1_ AGT  --- 46 tcp 1040 [0 0 0 0] ------- [1:1 2:0 32 0] [17 0] 0 0
r 10.153896677 _1_ RTR  --- 46 tcp 1040 [0 0 0 0] ------- [1:1 2:0 32 0] [17 0] 0 0
s 10.153896677 _1_ RTR  --- 46 tcp 1060 [0 0 0 0] ------- [1:1 2:0 32 2] [17 0] 0 0
s 10.153896677 _1_ AGT  --- 47 tcp 1040 [0 0 0 0] ------- [1:1 2:0 32 0] [18 0] 0 0
r 10.153896677 _1_ RTR  --- 47 tcp 1040 [0 0 0 0] ------- [1:1 2:0 32 0] [18 0] 0 0
s 10.153896677 _1_ RTR  --- 47 tcp 1060 [0 0 0 0] ------- [1:1 2:0 32 2] [18 0] 0 0
r 10.163942277 _2_ AGT  --- 29 tcp 1060 [13a 2 1 800] ------- [1:1 2:0 32 2] [9 0] 1 0
s 10.163942277 _2_ AGT  --- 48 ack 40 [0 0 0 0] ------- [2:0 1:1 32 0] [9 0] 0 0
r 10.163942277 _2_ RTR  --- 48 ack 40 [0 0 0 0] ------- [2:0 1:1 32 0] [9 0] 0 0
s 10.163942277 _2_ RTR  --- 48 ack 60 [0 0 0 0] ------- [2:0 1:1 32 1] [9 0] 0 0
r 10.174148410 _2_ AGT  --- 30 tcp 1060 [13a 2 1 800] ------- [1:1 2:0 32 2] [10 0] 1 0
s 10.174148410 _2_ AGT  --- 49 ack 40 [0 0 0 0] ------- [2:0 1:1 32 0] [10 0] 0 0
r 10.174148410 _2_ RTR  --- 49 ack 40 [0 0 0 0] ------- [2:0 1:1 32 0] [10 0] 0 0
s 10.174148410 _2_ RTR  --- 49 ack 60 [0 0 0 0] ------- [2:0 1:1 32 1] [10 0] 0 0
r 10.176314016 _0_ AGT  --- 33 ack 60 [13a 0 1 800] ------- [1:0 0:0 32 0] [2 0] 1 0
s 10.176314016 _0_ AGT  --- 50 tcp 1040 [0 0 0 0] ------- [0:0 1:0 32 0] [5 0] 0 0
r 10.176314016 _0_ RTR  --- 50 tcp 1040 [0 0 0 0] ------- [0:0 1:0 32 0] [5 0] 0 0
s 10.176314016 _0_ RTR  --- 50 tcp 1060 [0 0 0 0] ------- [0:0 1:0 32 1] [5 0] 0 0
s 10.176314016 _0_ AGT  --- 51 tcp 1040 [0 0 0 0] ------- [0:0 1:0 32 0] [6 0] 0 0
r 10.176314016 _0_ RTR  --- 51 tcp 1040 [0 0 0 0] ------- [0:0 1:0 32 0] [6 0] 0 0
s 10.176314016 _0_ RTR  --- 51 tcp 1060 [0 0 0 0] ------- [0:0 1:0 32 1] [6 0] 0 0
r 10.186459089 _1_ AGT  --- 50 tcp 1060 [13a 1 0 800] ------- [0:0 1:0 32 1] [5 0] 1 0
s 10.186459089 _1_ AGT  --- 52 ack 40 [0 0 0 0] ------- [1:0 0:0 32 0] [5 0] 0 0
r 10.186459089 _1_ RTR  --- 52 ack 40 [0 0 0 0] ------- [1:0 0:0 32 0] [5 0] 0 0
s 10.186459089 _1_ RTR  --- 52 ack 60 [0 0 0 0] ------- [1:0 0:0 32 0] [5 0] 0 0
r 10.188485222 _1_ AGT  --- 48 ack 60 [13a 1 2 800] ------- [2:0 1:1 32 1] [9 0] 1 0
s 10.188485222 _1_ AGT  --- 53 tcp 1040 [0 0 0 0] ------- [1:1 2:0 32 0] [19 0] 0 0
r 10.188485222 _1_ RTR  --- 53 tcp 1040 [0 0 0 0] ------- [1:1 2:0 32 0] [19 0] 0 0
s 10.188485222 _1_ RTR  --- 53 tcp 1060 [0 0 0 0] ------- [1:1 2:0 32 2] [19 0] 0 0
s 10.188485222 _1_ AGT  --- 54 tcp 1040 [0 0 0 0] ------- [1:1 2:0 32 0] [20 0] 0 0
r 10.188485222 _1_ RTR  --- 54 tcp 1040 [0 0 0 0] ------- [1:1 2:0 32 0] [20 0] 0 0
s 10.188485222 _1_ RTR  --- 54 tcp 1060 [0 0 0 0] ------- [1:1 2:0 32 2] [20 0] 0 0
r 10.190591355 _1_ AGT  --- 49 ack 60 [13a 1 2 800] ------- [2:0 1:1 32 1] [10 0] 1 0
s 10.190591355 _1_ AGT  --- 55 tcp 1040 [0 0 0 0] ------- [1:1 2:0 32 0] [21 0] 0 0
r 10.190591355 _1_ RTR  --- 55 tcp 1040 [0 0 0 0] ------- [1:1 2:0 32 0] [21 0] 0 0
s 10.190591355 _1_ RTR  --- 55 tcp 1060 [0 0 0 0] ------- [1:1 2:0 32 2] [21 0] 0 0
s 10.190591355 _1_ AGT  --- 56 tcp 1040 [0 0 0 0] ------- [1:1 2:0 32 0] [22 0] 0 0
r 10.190591355 _1_ RTR  --- 56 tcp 1040 [0 0 0 0] ------- [1:1 2:0 32 0] [22 0] 0 0
s 10.190591355 _1_ RTR  --- 56 tcp 1060 [0 0 0 0] ------- [1:1 2:0 32 2] [22 0] 0 0
r 10.200716955 _2_ AGT  --- 36 tcp 1060 [13a 2 1 800] ------- [1:1 2:0 32 2] [11 0] 1 0
s 10.200716955 _2_ AGT  --- 57 ack 40 [0 0 0 0] ------- [2:0 1:1 32 0] [11 0] 0 0
r 10.200716955 _2_ RTR  --- 57 ack 40 [0 0 0 0] ------- [2:0 1:1 32 0] [11 0] 0 0
s 10.200716955 _2_ RTR  --- 57 ack 60 [0 0 0 0] ------- [2:0 1:1 32 1] [11 0] 0 0
r 10.202722555 _1_ AGT  --- 57 ack 60 [13a 1 2 800] ------- [2:0 1:1 32 1] [11 0] 1 0
s 10.202722555 _1_ AGT  --- 58 tcp 1040 [0 0 0 0] ------- [1:1 2:0 32 0] [23 0] 0 0
r 10.202722555 _1_ RTR  --- 58 tcp 1040 [0 0 0 0] ------- [1:1 2:0 32 0] [23 0] 0 0
s 10.202722555 _1_ RTR  --- 58 tcp 1060 [0 0 0 0] ------- [1:1 2:0 32 2] [23 0] 0 0
s 10.202722555 _1_ AGT  --- 59 tcp 1040 [0 0 0 0] ------- [1:1 2:0 32 0] [24 0] 0 0
r 10.202722555 _1_ RTR  --- 59 tcp 1040 [0 0 0 0] ------- [1:1 2:0 32 0] [24 0] 0 0
s 10.202722555 _1_ RTR  --- 59 tcp 1060 [0 0 0 0] ------- [1:1 2:0 32 2] [24 0] 0 0
r 10.212827985 _1_ AGT  --- 51 tcp 1060 [13a 1 0 800] ------- [0:0 1:0 32 1] [6 0] 1 0
s 10.212827985 _1_ AGT  --- 60 ack 40 [0 0 0 0] ------- [1:0 0:0 32 0] [6 0] 0 0
r 10.212827985 _1_ RTR  --- 60 ack 40 [0 0 0 0] ------- [1:0 0:0 32 0] [6 0] 0 0
s 10.212827985 _1_ RTR  --- 60 ack 60 [0 0 0 0] ------- [1:0 0:0 32 0] [6 0] 0 0
r 10.222913585 _2_ AGT  --- 37 tcp 1060 [13a 2 1 800] ------- [1:1 2:0 32 2] [12 0] 1 0
s 10.222913585 _2_ AGT  --- 61 ack 40 [0 0 0 0] ------- [2:0 1:1 32 0] [12 0] 0 0
r 10.222913585 _2_ RTR  --- 61 ack 40 [0 0 0 0] ------- [2:0 1:1 32 0] [12 0] 0 0
s 10.222913585 _2_ RTR  --- 61 ack 60 [0 0 0 0] ------- [2:0 1:1 32 1] [12 0] 0 0
r 10.233219718 _2_ AGT  --- 38 tcp 1060 [13a 2 1 800] ------- [1:1 2:0 32 2] [13 0] 1 0
s 10.233219718 _2_ AGT  --- 62 ack 40 [0 0 0 0] ------- [2:0 1:1 32 0] [13 0] 0 0
r 10.233219718 _2_ RTR  --- 62 ack 40 [0 0 0 0] ------- [2:0 1:1 32 0] [13 0] 0 0
s 10.233219718 _2_ RTR  --- 62 ack 60 [0 0 0 0] ------- [2:0 1:1 32 1] [13 0] 0 0
r 10.235245318 _1_ AGT  --- 61 ack 60 [13a 1 2 800] ------- [2:0 1:1 32 1] [12 0] 1 0
s 10.235245318 _1_ AGT  --- 63 tcp 1040 [0 0 0 0] ------- [1:1 2:0 32 0] [25 0] 0 0
r 10.235245318 _1_ RTR  --- 63 tcp 1040 [0 0 0 0] ------- [1:1 2:0 32 0] [25 0] 0 0
s 10.235245318 _1_ RTR  --- 63 tcp 1060 [0 0 0 0] ------- [1:1 2:0 32 2] [25 0] 0 0
s 10.235245318 _1_ AGT  --- 64 tcp 1040 [0 0 0 0] ------- [1:1 2:0 32 0] [26 0] 0 0
r 10.235245318 _1_ RTR  --- 64 tcp 1040 [0 0 0 0] ------- [1:1 2:0 32 0] [26 0] 0 0
s 10.235245318 _1_ RTR  --- 64 tcp 1060 [0 0 0 0] ------- [1:1 2:0 32 2] [26 0] 0 0
r 10.245610918 _2_ AGT  --- 39 tcp 1060 [13a 2 1 800] ------- [1:1 2:0 32 2] [14 0] 1 0
s 10.245610918 _2_ AGT  --- 65 ack 40 [0 0 0 0] ------- [2:0 1:1 32 0] [14 0] 0 0
r 10.245610918 _2_ RTR  --- 65 ack 40 [0 0 0 0] ------- [2:0 1:1 32 0] [14 0] 0 0
s 10.245610918 _2_ RTR  --- 65 ack 60 [0 0 0 0] ------- [2:0 1:1 32 1] [14 0] 0 0
r 10.247736518 _1_ AGT  --- 62 ack 60 [13a 1 2 800] ------- [2:0 1:1 32 1] [13 0] 1 0
s 10.247736518 _1_ AGT  --- 66 tcp 1040 [0 0 0 0] ------- [1:1 2:0 32 0] [27 0] 0 0
r 10.247736518 _1_ RTR  --- 66 tcp 1040 [0 0 0 0] ------- [1:1 2:0 32 0] [27 0] 0 0
s 10.247736518 _1_ RTR  --- 66 tcp 1060 [0 0 0 0] ------- [1:1 2:0 32 2] [27 0] 0 0
s 10.247736518 _1_ AGT  --- 67 tcp 1040 [0 0 0 0] ------- [1:1 2:0 32 0] [28 0] 0 0
r 10.247736518 _1_ RTR  --- 67 tcp 1040 [0 0 0 0] ------- [1:1 2:0 32 0] [28 0] 0 0
s 10.247736518 _1_ RTR  --- 67 tcp 1060 [0 0 0 0] ------- [1:1 2:0 32 2] [28 0] 0 0
r 10.249882651 _1_ AGT  --- 65 ack 60 [13a 1 2 800] ------- [2:0 1:1 32 1] [14 0] 1 0
s 10.249882651 _1_ AGT  --- 68 tcp 1040 [0 0 0 0] ------- [1:1 2:0 32 0] [29 0] 0 0
r 10.249882651 _1_ RTR  --- 68 tcp 1040 [0 0 0 0] ------- [1:1 2:0 32 0] [29 0] 0 0
s 10.249882651 _1_ RTR  --- 68 tcp 1060 [0 0 0 0] ------- [1:1 2:0 32 2] [29 0] 0 0
s 10.249882651 _1_ AGT  --- 69 tcp 1040 [0 0 0 0] ------- [1:1 2:0 32 0] [30 0] 0 0
r 10.249882651 _1_ RTR  --- 69 tcp 1040 [0 0 0 0] ------- [1:1 2:0 32 0] [30 0] 0 0
s 10.249882651 _1_ RTR  --- 69 tcp 1060 [0 0 0 0] ------- [1:1 2:0 32 2] [30 0] 0 0
r 10.251887722 _0_ AGT  --- 40 ack 60 [13a 0 1 800] ------- [1:0 0:0 32 0] [3 0] 1 0
s 10.251887722 _0_ AGT  --- 70 tcp 1040 [0 0 0 0] ------- [0:0 1:0 32 0] [7 0] 0 0
r 10.251887722 _0_ RTR  --- 70 tcp 1040 [0 0 0 0] ------- [0:0 1:0 32 0] [7 0] 0 0
s 10.251887722 _0_ RTR  --- 70 tcp 1060 [0 0 0 0] ------- [0:0 1:0 32 1] [7 0] 0 0
s 10.251887722 _0_ AGT  --- 71 tcp 1040 [0 0 0 0] ------- [0:0 1:0 32 0] [8 0] 0 0
r 10.251887722 _0_ RTR  --- 71 tcp 1040 [0 0 0 0] ------- [0:0 1:0 32 0] [8 0] 0 0
s 10.251887722 _0_ RTR  --- 71 tcp 1060 [0 0 0 0] ------- [0:0 1:0 32 1] [8 0] 0 0
r 10.253973150 _0_ AGT  --- 42 ack 60 [13a 0 1 800] ------- [1:0 0:0 32 0] [4 0] 1 0
s 10.253973150 _0_ AGT  --- 72 tcp 1040 [0 0 0 0] ------- [0:0 1:0 32 0] [9 0] 0 0
r 10.253973150 _0_ RTR  --- 72 tcp 1040 [0 0 0 0] ------- [0:0 1:0 32 0] [9 0] 0 0
s 10.253973150 _0_ RTR  --- 72 tcp 1060 [0 0 0 0] ------- [0:0 1:0 32 1] [9 0] 0 0
s 10.253973150 _0_ AGT  --- 73 tcp 1040 [0 0 0 0] ------- [0:0 1:0 32 0] [10 0] 0 0
r 10.253973150 _0_ RTR  --- 73 tcp 1040 [0 0 0 0] ------- [0:0 1:0 32 0] [10 0] 0 0
s 10.253973150 _0_ RTR  --- 73 tcp 1060 [0 0 0 0] ------- [0:0 1:0 32 1] [10 0] 0 0
r 10.263959107 _2_ AGT  --- 43 tcp 1060 [13a 2 1 800] ------- [1:1 2:0 32 2] [15 0] 1 0
s 10.263959107 _2_ AGT  --- 74 ack 40 [0 0 0 0] ------- [2:0 1:1 32 0] [15 0] 0 0
r 10.263959107 _2_ RTR  --- 74 ack 40 [0 0 0 0] ------- [2:0 1:1 32 0] [15 0] 0 0
s 10.263959107 _2_ RTR  --- 74 ack 60 [0 0 0 0] ------- [2:0 1:1 32 1] [15 0] 0 0
r 10.266004707 _1_ AGT  --- 74 ack 60 [13a 1 2 800] ------- [2:0 1:1 32 1] [15 0] 1 0
s 10.266004707 _1_ AGT  --- 75 tcp 1040 [0 0 0 0] ------- [1:1 2:0 32 0] [31 0] 0 0
r 10.266004707 _1_ RTR  --- 75 tcp 1040 [0 0 0 0] ------- [1:1 2:0 32 0] [31 0] 0 0
s 10.266004707 _1_ RTR  --- 75 tcp 1060 [0 0 0 0] ------- [1:1 2:0 32 2] [31 0] 0 0
s 10.266004707 _1_ AGT  --- 76 tcp 1040 [0 0 0 0] ------- [1:1 2:0 32 0] [32 0] 0 0
r 10.266004707 _1_ RTR  --- 76 tcp 1040 [0 0 0 0] ------- [1:1 2:0 32 0] [32 0] 0 0
s 10.266004707 _1_ RTR  --- 76 tcp 1060 [0 0 0 0] ------- [1:1 2:0 32 2] [32 0] 0 0
r 10.276110134 _1_ AGT  --- 70 tcp 1060 [13a 1 0 800] ------- [0:0 1:0 32 1] [7 0] 1 0
s 10.276110134 _1_ AGT  --- 77 ack 40 [0 0 0 0] ------- [1:0 0:0 32 0] [7 0] 0 0
r 10.276110134 _1_ RTR  --- 77 ack 40 [0 0 0 0] ------- [1:0 0:0 32 0] [7 0] 0 0
s 10.276110134 _1_ RTR  --- 77 ack 60 [0 0 0 0] ------- [1:0 0:0 32 0] [7 0] 0 0
r 10.286455734 _2_ AGT  --- 44 tcp 1060 [13a 2 1 800] ------- [1:1 2:0 32 2] [16 0] 1 0
s 10.286455734 _2_ AGT  --- 78 ack 40 [0 0 0 0] ------- [2:0 1:1 32 0] [16 0] 0 0
r 10.286455734 _2_ RTR  --- 78 ack 40 [0 0 0 0] ------- [2:0 1:1 32 0] [16 0] 0 0
s 10.286455734 _2_ RTR  --- 78 ack 60 [0 0 0 0] ------- [2:0 1:1 32 1] [16 0] 0 0
r 10.296461867 _2_ AGT  --- 46 tcp 1060 [13a 2 1 800] ------- [1:1 2:0 32 2] [17 0] 1 0
s 10.296461867 _2_ AGT  --- 79 ack 40 [0 0 0 0] ------- [2:0 1:1 32 0] [17 0] 0 0
r 10.296461867 _2_ RTR  --- 79 ack 40 [0 0 0 0] ------- [2:0 1:1 32 0] [17 0] 0 0
s 10.296461867 _2_ RTR  --- 79 ack 60 [0 0 0 0] ------- [2:0 1:1 32 1] [17 0] 0 0
r 10.306468001 _2_ AGT  --- 47 tcp 1060 [13a 2 1 800] ------- [1:1 2:0 32 2] [18 0] 1 0
s 10.306468001 _2_ AGT  --- 80 ack 40 [0 0 0 0] ------- [2:0 1:1 32 0] [18 0] 0 0
r 10.306468001 _2_ RTR  --- 80 ack 40 [0 0 0 0] ------- [2:0 1:1 32 0] [18 0] 0 0
s 10.306468001 _2_ RTR  --- 80 ack 60 [0 0 0 0] ------- [2:0 1:1 32 1] [18 0] 0 0
r 10.316493813 _1_ AGT  --- 71 tcp 1060 [13a 1 0 800] ------- [0:0 1:0 32 1] [8 0] 1 0
s 10.316493813 _1_ AGT  --- 81 ack 40 [0 0 0 0] ------- [1:0 0:0 32 0] [8 0] 0 0
r 10.316493813 _1_ RTR  --- 81 ack 40 [0 0 0 0] ------- [1:0 0:0 32 0] [8 0] 0 0
s 10.316493813 _1_ RTR  --- 81 ack 60 [0 0 0 0] ------- [1:0 0:0 32 0] [8 0] 0 0
r 10.318498882 _0_ AGT  --- 52 ack 60 [13a 0 1 800] ------- [1:0 0:0 32 0] [5 0] 1 0
s 10.318498882 _0_ AGT  --- 82 tcp 1040 [0 0 0 0] ------- [0:0 1:0 32 0] [11 0] 0 0
r 10.318498882 _0_ RTR  --- 82 tcp 1040 [0 0 0 0] ------- [0:0 1:0 32 0] [11 0] 0 0
s 10.318498882 _0_ RTR  --- 82 tcp 1060 [0 0 0 0] ------- [0:0 1:0 32 1] [11 0] 0 0
s 10.318498882 _0_ AGT  --- 83 tcp 1040 [0 0 0 0] ------- [0:0 1:0 32 0] [12 0] 0 0
r 10.318498882 _0_ RTR  --- 83 tcp 1040 [0 0 0 0] ------- [0:0 1:0 32 0] [12 0] 0 0
s 10.318498882 _0_ RTR  --- 83 tcp 1060 [0 0 0 0] ------- [0:0 1:0 32 1] [12 0] 0 0
r 10.328504839 _2_ AGT  --- 53 tcp 1060 [13a 2 1 800] ------- [1:1 2:0 32 2] [19 0] 1 0
s 10.328504839 _2_ AGT  --- 84 ack 40 [0 0 0 0] ------- [2:0 1:1 32 0] [19 0] 0 0
r 10.328504839 _2_ RTR  --- 84 ack 40 [0 0 0 0] ------- [2:0 1:1 32 0] [19 0] 0 0
s 10.328504839 _2_ RTR  --- 84 ack 60 [0 0 0 0] ------- [2:0 1:1 32 1] [19 0] 0 0
r 10.339516797 _1_ AGT  --- 72 tcp 1060 [13a 1 0 800] ------- [0:0 1:0 32 1] [9 0] 1 0
s 10.339516797 _1_ AGT  --- 85 ack 40 [0 0 0 0] ------- [1:0 0:0 32 0] [9 0] 0 0
r 10.339516797 _1_ RTR  --- 85 ack 40 [0 0 0 0] ------- [1:0 0:0 32 0] [9 0] 0 0
s 10.339516797 _1_ RTR  --- 85 ack 60 [0 0 0 0] ------- [1:0 0:0 32 0] [9 0] 0 0
r 10.349882222 _1_ AGT  --- 73 tcp 1060 [13a 1 0 800] ------- [0:0 1:0 32 1] [10 0] 1 0
s 10.349882222 _1_ AGT  --- 86 ack 40 [0 0 0 0] ------- [1:0 0:0 32 0] [10 0] 0 0
r 10.349882222 _1_ RTR  --- 86 ack 40 [0 0 0 0] ------- [1:0 0:0 32 0] [10 0] 0 0
s 10.349882222 _1_ RTR  --- 86 ack 60 [0 0 0 0] ------- [1:0 0:0 32 0] [10 0] 0 0
r 10.352028355 _1_ AGT  --- 78 ack 60 [13a 1 2 800] ------- [2:0 1:1 32 1] [16 0] 1 0
s 10.352028355 _1_ AGT  --- 87 tcp 1040 [0 0 0 0] ------- [1:1 2:0 32 0] [33 0] 0 0
r 10.352028355 _1_ RTR  --- 87 tcp 1040 [0 0 0 0] ------- [1:1 2:0 32 0] [33 0] 0 0
s 10.352028355 _1_ RTR  --- 87 tcp 1060 [0 0 0 0] ------- [1:1 2:0 32 2] [33 0] 0 0
s 10.352028355 _1_ AGT  --- 88 tcp 1040 [0 0 0 0] ------- [1:1 2:0 32 0] [34 0] 0 0
r 10.352028355 _1_ RTR  --- 88 tcp 1040 [0 0 0 0] ------- [1:1 2:0 32 0] [34 0] 0 0
s 10.352028355 _1_ RTR  --- 88 tcp 1060 [0 0 0 0] ------- [1:1 2:0 32 2] [34 0] 0 0
r 10.363161022 _2_ AGT  --- 54 tcp 1060 [13a 2 1 800] ------- [1:1 2:0 32 2] [20 0] 1 0
s 10.363161022 _2_ AGT  --- 89 ack 40 [0 0 0 0] ------- [2:0 1:1 32 0] [20 0] 0 0
r 10.363161022 _2_ RTR  --- 89 ack 40 [0 0 0 0] ------- [2:0 1:1 32 0] [20 0] 0 0