+ 0.5 0 4 cbr 1000 ------- 0 0.0 3.0 0 0
- 0.5 0 4 cbr 1000 ------- 0 0.0 3.0 0 0
+ 0.508 0 4 cbr 1000 ------- 0 0.0 3.0 1 1
- 0.508 0 4 cbr 1000 ------- 0 0.0 3.0 1 1
+ 0.516 0 4 cbr 1000 ------- 0 0.0 3.0 2 2
- 0.516 0 4 cbr 1000 ------- 0 0.0 3.0 2 2
r 0.518 0 4 cbr 1000 ------- 0 0.0 3.0 0 0
+ 0.518 4 3 cbr 1000 ------- 0 0.0 3.0 0 0
- 0.518 4 3 cbr 1000 ------- 0 0.0 3.0 0 0
+ 0.524 0 4 cbr 1000 ------- 0 0.0 3.0 3 3
- 0.524 0 4 cbr 1000 ------- 0 0.0 3.0 3 3
r 0.526 0 4 cbr 1000 ------- 0 0.0 3.0 1 1
+ 0.526 4 3 cbr 1000 ------- 0 0.0 3.0 1 1
- 0.526 4 3 cbr 1000 ------- 0 0.0 3.0 1 1
+ 0.532 0 4 cbr 1000 ------- 0 0.0 3.0 4 4
- 0.532 0 4 cbr 1000 ------- 0 0.0 3.0 4 4
r 0.534 0 4 cbr 1000 ------- 0 0.0 3.0 2 2
+ 0.534 4 3 cbr 1000 ------- 0 0.0 3.0 2 2
- 0.534 4 3 cbr 1000 ------- 0 0.0 3.0 2 2
r 0.536 4 3 cbr 1000 ------- 0 0.0 3.0 0 0
+ 0.54 0 4 cbr 1000 ------- 0 0.0 3.0 5 5
- 0.54 0 4 cbr 1000 ------- 0 0.0 3.0 5 5
r 0.542 0 4 cbr 1000 ------- 0 0.0 3.0 3 3
+ 0.542 4 3 cbr 1000 ------- 0 0.0 3.0 3 3
- 0.542 4 3 cbr 1000 ------- 0 0.0 3.0 3 3
r 0.544 4 3 cbr 1000 ------- 0 0.0 3.0 1 1
+ 0.548 0 4 cbr 1000 ------- 0 0.0 3.0 6 6
- 0.548 0 4 cbr 1000 ------- 0 0.0 3.0 6 6
r 0.55 0 4 cbr 1000 ------- 0 0.0 3.0 4 4
+ 0.55 4 3 cbr 1000 ------- 0 0.0 3.0 4 4
- 0.55 4 3 cbr 1000 ------- 0 0.0 3.0 4 4
r 0.552 4 3 cbr 1000 ------- 0 0.0 3.0 2 2
+ 0.556 0 4 cbr 1000 ------- 0 0.0 3.0 7 7
- 0.556 0 4 cbr 1000 ------- 0 0.0 3.0 7 7
r 0.558 0 4 cbr 1000 ------- 0 0.0 3.0 5 5
+ 0.558 4 3 cbr 1000 ------- 0 0.0 3.0 5 5
- 0.558 4 3 cbr 1000 ------- 0 0.0 3.0 5 5
r 0.56 4 3 cbr 1000 ------- 0 0.0 3.0 3 3
+ 0.564 0 4 cbr 1000 ------- 0 0.0 3.0 8 8
- 0.564 0 4 cbr 1000 ------- 0 0.0 3.0 8 8
r 0.566 0 4 cbr 1000 ------- 0 0.0 3.0 6 6
+ 0.566 4 3 cbr 1000 ------- 0 0.0 3.0 6 6
- 0.566 4 3 cbr 1000 ------- 0 0.0 3.0 6 6
r 0.568 4 3 cbr 1000 ------- 0 0.0 3.0 4 4
+ 0.572 0 4 cbr 1000 ------- 0 0.0 3.0 9 9
- 0.572 0 4 cbr 1000 ------- 0 0.0 3.0 9 9
r 0.574 0 4 cbr 1000 ------- 0 0.0 3.0 7 7
+ 0.574 4 3 cbr 1000 ------- 0 0.0 3.0 7 7
- 0.574 4 3 cbr 1000 ------- 0 0.0 3.0 7 7
r 0.576 4 3 cbr 1000 ------- 0 0.0 3.0 5 5
+ 0.58 0 4 cbr 1000 ------- 0 0.0 3.0 10 10
- 0.58 0 4 cbr 1000 ------- 0 0.0 3.0 10 10
r 0.582 0 4 cbr 1000 ------- 0 0.0 3.0 8 8
+ 0.582 4 3 cbr 1000 ------- 0 0.0 3.0 8 8
- 0.582 4 3 cbr 1000 ------- 0 0.0 3.0 8 8
r 0.584 4 3 cbr 1000 ------- 0 0.0 3.0 6 6
+ 0.588 0 4 cbr 1000 ------- 0 0.0 3.0 11 11
- 0.588 0 4 cbr 1000 ------- 0 0.0 3.0 11 11
r 0.59 0 4 cbr 1000 ------- 0 0.0 3.0 9 9
+ 0.59 4 3 cbr 1000 ------- 0 0.0 3.0 9 9
- 0.59 4 3 cbr 1000 ------- 0 0.0 3.0 9 9
r 0.592 4 3 cbr 1000 ------- 0 0.0 3.0 7 7
+ 0.596 0 4 cbr 1000 ------- 0 0.0 3.0 12 12
- 0.596 0 4 cbr 1000 ------- 0 0.0 3.0 12 12
r 0.598 0 4 cbr 1000 ------- 0 0.0 3.0 10 10
+ 0.598 4 3 cbr 1000 ------- 0 0.0 3.0 10 10
- 0.598 4 3 cbr 1000 ------- 0 0.0 3.0 10 10
r 0.6 4 3 cbr 1000 ------- 0 0.0 3.0 8 8
+ 0.604 0 4 cbr 1000 ------- 0 0.0 3.0 13 13
- 0.604 0 4 cbr 1000 ------- 0 0.0 3.0 13 13
r 0.606 0 4 cbr 1000 ------- 0 0.0 3.0 11 11
+ 0.606 4 3 cbr 1000 ------- 0 0.0 3.0 11 11
- 0.606 4 3 cbr 1000 ------- 0 0.0 3.0 11 11
r 0.608 4 3 cbr 1000 ------- 0 0.0 3.0 9 9
+ 0.612 0 4 cbr 1000 ------- 0 0.0 3.0 14 14
- 0.612 0 4 cbr 1000 ------- 0 0.0 3.0 14 14
r 0.614 0 4 cbr 1000 ------- 0 0.0 3.0 12 12
+ 0.614 4 3 cbr 1000 ------- 0 0.0 3.0 12 12
- 0.614 4 3 cbr 1000 ------- 0 0.0 3.0 12 12
r 0.616 4 3 cbr 1000 ------- 0 0.0 3.0 10 10
+ 0.62 0 4 cbr 1000 ------- 0 0.0 3.0 15 15
- 0.62 0 4 cbr 1000 ------- 0 0.0 3.0 15 15
r 0.622 0 4 cbr 1000 ------- 0 0.0 3.0 13 13
+ 0.622 4 3 cbr 1000 ------- 0 0.0 3.0 13 13
- 0.622 4 3 cbr 1000 ------- 0 0.0 3.0 13 13
r 0.624 4 3 cbr 1000 ------- 0 0.0 3.0 11 11
+ 0.628 0 4 cbr 1000 ------- 0 0.0 3.0 16 16
- 0.628 0 4 cbr 1000 ------- 0 0.0 3.0 16 16
r 0.63 0 4 cbr 1000 ------- 0 0.0 3.0 14 14
+ 0.63 4 3 cbr 1000 ------- 0 0.0 3.0 14 14
- 0.63 4 3 cbr 1000 ------- 0 0.0 3.0 14 14
r 0.632 4 3 cbr 1000 ------- 0 0.0 3.0 12 12
+ 0.636 0 4 cbr 1000 ------- 0 0.0 3.0 17 17
- 0.636 0 4 cbr 1000 ------- 0 0.0 3.0 17 17
r 0.638 0 4 cbr 1000 ------- 0 0.0 3.0 15 15
+ 0.638 4 3 cbr 1000 ------- 0 0.0 3.0 15 15
- 0.638 4 3 cbr 1000 ------- 0 0.0 3.0 15 15
r 0.64 4 3 cbr 1000 ------- 0 0.0 3.0 13 13
+ 0.644 0 4 cbr 1000 ------- 0 0.0 3.0 18 18
- 0.644 0 4 cbr 1000 ------- 0 0.0 3.0 18 18
r 0.646 0 4 cbr 1000 ------- 0 0.0 3.0 16 16
+ 0.646 4 3 cbr 1000 ------- 0 0.0 3.0 16 16
- 0.646 4 3 cbr 1000 ------- 0 0.0 3.0 16 16
r 0.648 4 3 cbr 1000 ------- 0 0.0 3.0 14 14
+ 0.652 0 4 cbr 1000 ------- 0 0.0 3.0 19 19
- 0.652 0 4 cbr 1000 ------- 0 0.0 3.0 19 19
r 0.654 0 4 cbr 1000 ------- 0 0.0 3.0 17 17
+ 0.654 4 3 cbr 1000 ------- 0 0.0 3.0 17 17
- 0.654 4 3 cbr 1000 ------- 0 0.0 3.0 17 17
r 0.656 4 3 cbr 1000 ------- 0 0.0 3.0 15 15
+ 0.66 0 4 cbr 1000 ------- 0 0.0 3.0 20 20
- 0.66 0 4 cbr 1000 ------- 0 0.0 3.0 20 20
r 0.662 0 4 cbr 1000 ------- 0 0.0 3.0 18 18
+ 0.662 4 3 cbr 1000 ------- 0 0.0 3.0 18 18
- 0.662 4 3 cbr 1000 ------- 0 0.0 3.0 18 18
r 0.664 4 3 cbr 1000 ------- 0 0.0 3.0 16 16
+ 0.668 0 4 cbr 1000 ------- 0 0.0 3.0 21 21
- 0.668 0 4 cbr 1000 ------- 0 0.0 3.0 21 21
r 0.67 0 4 cbr 1000 ------- 0 0.0 3.0 19 19
+ 0.67 4 3 cbr 1000 ------- 0 0.0 3.0 19 19
- 0.67 4 3 cbr 1000 ------- 0 0.0 3.0 19 19
r 0.672 4 3 cbr 1000 ------- 0 0.0 3.0 17 17
+ 0.676 0 4 cbr 1000 ------- 0 0.0 3.0 22 22
- 0.676 0 4 cbr 1000 ------- 0 0.0 3.0 22 22
r 0.678 0 4 cbr 1000 ------- 0 0.0 3.0 20 20
+ 0.678 4 3 cbr 1000 ------- 0 0.0 3.0 20 20
- 0.678 4 3 cbr 1000 ------- 0 0.0 3.0 20 20
r 0.68 4 3 cbr 1000 ------- 0 0.0 3.0 18 18
+ 0.684 0 4 cbr 1000 ------- 0 0.0 3.0 23 23
- 0.684 0 4 cbr 1000 ------- 0 0.0 3.0 23 23
r 0.686 0 4 cbr 1000 ------- 0 0.0 3.0 21 21
+ 0.686 4 3 cbr 1000 ------- 0 0.0 3.0 21 21
- 0.686 4 3 cbr 1000 ------- 0 0.0 3.0 21 21
r 0.688 4 3 cbr 1000 ------- 0 0.0 3.0 19 19
+ 0.692 0 4 cbr 1000 ------- 0 0.0 3.0 24 24
- 0.692 0 4 cbr 1000 ------- 0 0.0 3.0 24 24
r 0.694 0 4 cbr 1000 ------- 0 0.0 3.0 22 22
+ 0.694 4 3 cbr 1000 ------- 0 0.0 3.0 22 22
- 0.694 4 3 cbr 1000 ------- 0 0.0 3.0 22 22
r 0.696 4 3 cbr 1000 ------- 0 0.0 3.0 20 20
+ 0.7 0 4 cbr 1000 ------- 0 0.0 3.0 25 25
- 0.7 0 4 cbr 1000 ------- 0 0.0 3.0 25 25
r 0.702 0 4 cbr 1000 ------- 0 0.0 3.0 23 23
+ 0.702 4 3 cbr 1000 ------- 0 0.0 3.0 23 23
- 0.702 4 3 cbr 1000 ------- 0 0.0 3.0 23 23
r 0.704 4 3 cbr 1000 ------- 0 0.0 3.0 21 21
+ 0.708 0 4 cbr 1000 ------- 0 0.0 3.0 26 26
- 0.708 0 4 cbr 1000 ------- 0 0.0 3.0 26 26
r 0.71 0 4 cbr 1000 ------- 0 0.0 3.0 24 24
+ 0.71 4 3 cbr 1000 ------- 0 0.0 3.0 24 24
- 0.71 4 3 cbr 1000 ------- 0 0.0 3.0 24 24
r 0.712 4 3 cbr 1000 ------- 0 0.0 3.0 22 22
+ 0.716 0 4 cbr 1000 ------- 0 0.0 3.0 27 27
- 0.716 0 4 cbr 1000 ------- 0 0.0 3.0 27 27
r 0.718 0 4 cbr 1000 ------- 0 0.0 3.0 25 25
+ 0.718 4 3 cbr 1000 ------- 0 0.0 3.0 25 25
- 0.718 4 3 cbr 1000 ------- 0 0.0 3.0 25 25
r 0.72 4 3 cbr 1000 ------- 0 0.0 3.0 23 23
+ 0.724 0 4 cbr 1000 ------- 0 0.0 3.0 28 28
- 0.724 0 4 cbr 1000 ------- 0 0.0 3.0 28 28
r 0.726 0 4 cbr 1000 ------- 0 0.0 3.0 26 26
+ 0.726 4 3 cbr 1000 ------- 0 0.0 3.0 26 26
- 0.726 4 3 cbr 1000 ------- 0 0.0 3.0 26 26
r 0.728 4 3 cbr 1000 ------- 0 0.0 3.0 24 24
+ 0.732 0 4 cbr 1000 ------- 0 0.0 3.0 29 29
- 0.732 0 4 cbr 1000 ------- 0 0.0 3.0 29 29
r 0.734 0 4 cbr 1000 ------- 0 0.0 3.0 27 27
+ 0.734 4 3 cbr 1000 ------- 0 0.0 3.0 27 27
- 0.734 4 3 cbr 1000 ------- 0 0.0 3.0 27 27
r 0.736 4 3 cbr 1000 ------- 0 0.0 3.0 25 25
+ 0.74 0 4 cbr 1000 ------- 0 0.0 3.0 30 30
- 0.74 0 4 cbr 1000 ------- 0 0.0 3.0 30 30
r 0.742 0 4 cbr 1000 ------- 0 0.0 3.0 28 28
+ 0.742 4 3 cbr 1000 ------- 0 0.0 3.0 28 28
- 0.742 4 3 cbr 1000 ------- 0 0.0 3.0 28 28
r 0.744 4 3 cbr 1000 ------- 0 0.0 3.0 26 26
+ 0.748 0 4 cbr 1000 ------- 0 0.0 3.0 31 31
- 0.748 0 4 cbr 1000 ------- 0 0.0 3.0 31 31
r 0.75 0 4 cbr 1000 ------- 0 0.0 3.0 29 29
+ 0.75 4 3 cbr 1000 ------- 0 0.0 3.0 29 29
- 0.75 4 3 cbr 1000 ------- 0 0.0 3.0 29 29
r 0.752 4 3 cbr 1000 ------- 0 0.0 3.0 27 27
+ 0.756 0 4 cbr 1000 ------- 0 0.0 3.0 32 32
- 0.756 0 4 cbr 1000 ------- 0 0.0 3.0 32 32
r 0.758 0 4 cbr 1000 ------- 0 0.0 3.0 30 30
+ 0.758 4 3 cbr 1000 ------- 0 0.0 3.0 30 30
- 0.758 4 3 cbr 1000 ------- 0 0.0 3.0 30 30
r 0.76 4 3 cbr 1000 ------- 0 0.0 3.0 28 28
+ 0.764 0 4 cbr 1000 ------- 0 0.0 3.0 33 33
- 0.764 0 4 cbr 1000 ------- 0 0.0 3.0 33 33
r 0.766 0 4 cbr 1000 ------- 0 0.0 3.0 31 31
+ 0.766 4 3 cbr 1000 ------- 0 0.0 3.0 31 31
- 0.766 4 3 cbr 1000 ------- 0 0.0 3.0 31 31
r 0.768 4 3 cbr 1000 ------- 0 0.0 3.0 29 29
+ 0.772 0 4 cbr 1000 ------- 0 0.0 3.0 34 34
- 0.772 0 4 cbr 1000 ------- 0 0.0 3.0 34 34
r 0.774 0 4 cbr 1000 ------- 0 0.0 3.0 32 32
+ 0.774 4 3 cbr 1000 ------- 0 0.0 3.0 32 32
- 0.774 4 3 cbr 1000 ------- 0 0.0 3.0 32 32
r 0.776 4 3 cbr 1000 ------- 0 0.0 3.0 30 30
+ 0.78 0 4 cbr 1000 ------- 0 0.0 3.0 35 35
- 0.78 0 4 cbr 1000 ------- 0 0.0 3.0 35 35
r 0.782 0 4 cbr 1000 ------- 0 0.0 3.0 33 33
+ 0.782 4 3 cbr 1000 ------- 0 0.0 3.0 33 33
- 0.782 4 3 cbr 1000 ------- 0 0.0 3.0 33 33
r 0.784 4 3 cbr 1000 ------- 0 0.0 3.0 31 31
+ 0.788 0 4 cbr 1000 ------- 0 0.0 3.0 36 36
- 0.788 0 4 cbr 1000 ------- 0 0.0 3.0 36 36
r 0.79 0 4 cbr 1000 ------- 0 0.0 3.0 34 34
+ 0.79 4 3 cbr 1000 ------- 0 0.0 3.0 34 34
- 0.79 4 3 cbr 1000 ------- 0 0.0 3.0 34 34
r 0.792 4 3 cbr 1000 ------- 0 0.0 3.0 32 32
+ 0.796 0 4 cbr 1000 ------- 0 0.0 3.0 37 37
- 0.796 0 4 cbr 1000 ------- 0 0.0 3.0 37 37
r 0.798 0 4 cbr 1000 ------- 0 0.0 3.0 35 35
+ 0.798 4 3 cbr 1000 ------- 0 0.0 3.0 35 35
- 0.798 4 3 cbr 1000 ------- 0 0.0 3.0 35 35
r 0.8 4 3 cbr 1000 ------- 0 0.0 3.0 33 33
+ 0.804 0 4 cbr 1000 ------- 0 0.0 3.0 38 38
- 0.804 0 4 cbr 1000 ------- 0 0.0 3.0 38 38
r 0.806 0 4 cbr 1000 ------- 0 0.0 3.0 36 36
+ 0.806 4 3 cbr 1000 ------- 0 0.0 3.0 36 36
- 0.806 4 3 cbr 1000 ------- 0 0.0 3.0 36 36
r 0.808 4 3 cbr 1000 ------- 0 0.0 3.0 34 34
+ 0.812 0 4 cbr 1000 ------- 0 0.0 3.0 39 39
- 0.812 0 4 cbr 1000 ------- 0 0.0 3.0 39 39
r 0.814 0 4 cbr 1000 ------- 0 0.0 3.0 37 37
+ 0.814 4 3 cbr 1000 ------- 0 0.0 3.0 37 37
- 0.814 4 3 cbr 1000 ------- 0 0.0 3.0 37 37
r 0.816 4 3 cbr 1000 ------- 0 0.0 3.0 35 35
+ 0.82 0 4 cbr 1000 ------- 0 0.0 3.0 40 40
- 0.82 0 4 cbr 1000 ------- 0 0.0 3.0 40 40
r 0.822 0 4 cbr 1000 ------- 0 0.0 3.0 38 38
+ 0.822 4 3 cbr 1000 ------- 0 0.0 3.0 38 38
- 0.822 4 3 cbr 1000 ------- 0 0.0 3.0 38 38
r 0.824 4 3 cbr 1000 ------- 0 0.0 3.0 36 36
+ 0.828 0 4 cbr 1000 ------- 0 0.0 3.0 41 41
- 0.828 0 4 cbr 1000 ------- 0 0.0 3.0 41 41
r 0.83 0 4 cbr 1000 ------- 0 0.0 3.0 39 39
+ 0.83 4 3 cbr 1000 ------- 0 0.0 3.0 39 39
- 0.83 4 3 cbr 1000 ------- 0 0.0 3.0 39 39
r 0.832 4 3 cbr 1000 ------- 0 0.0 3.0 37 37
+ 0.836 0 4 cbr 1000 ------- 0 0.0 3.0 42 42
- 0.836 0 4 cbr 1000 ------- 0 0.0 3.0 42 42
r 0.838 0 4 cbr 1000 ------- 0 0.0 3.0 40 40
+ 0.838 4 3 cbr 1000 ------- 0 0.0 3.0 40 40
- 0.838 4 3 cbr 1000 ------- 0 0.0 3.0 40 40
r 0.84 4 3 cbr 1000 ------- 0 0.0 3.0 38 38
+ 0.844 0 4 cbr 1000 ------- 0 0.0 3.0 43 43
- 0.844 0 4 cbr 1000 ------- 0 0.0 3.0 43 43
r 0.846 0 4 cbr 1000 ------- 0 0.0 3.0 41 41
+ 0.846 4 3 cbr 1000 ------- 0 0.0 3.0 41 41
- 0.846 4 3 cbr 1000 ------- 0 0.0 3.0 41 41
r 0.848 4 3 cbr 1000 ------- 0 0.0 3.0 39 39
+ 0.852 0 4 cbr 1000 ------- 0 0.0 3.0 44 44
- 0.852 0 4 cbr 1000 ------- 0 0.0 3.0 44 44
r 0.854 0 4 cbr 1000 ------- 0 0.0 3.0 42 42
+ 0.854 4 3 cbr 1000 ------- 0 0.0 3.0 42 42
- 0.854 4 3 cbr 1000 ------- 0 0.0 3.0 42 42
r 0.856 4 3 cbr 1000 ------- 0 0.0 3.0 40 40
+ 0.86 0 4 cbr 1000 ------- 0 0.0 3.0 45 45
- 0.86 0 4 cbr 1000 ------- 0 0.0 3.0 45 45
r 0.862 0 4 cbr 1000 ------- 0 0.0 3.0 43 43
+ 0.862 4 3 cbr 1000 ------- 0 0.0 3.0 43 43
- 0.862 4 3 cbr 1000 ------- 0 0.0 3.0 43 43
r 0.864 4 3 cbr 1000 ------- 0 0.0 3.0 41 41
+ 0.868 0 4 cbr 1000 ------- 0 0.0 3.0 46 46
- 0.868 0 4 cbr 1000 ------- 0 0.0 3.0 46 46
r 0.87 0 4 cbr 1000 ------- 0 0.0 3.0 44 44
+ 0.87 4 3 cbr 1000 ------- 0 0.0 3.0 44 44
- 0.87 4 3 cbr 1000 ------- 0 0.0 3.0 44 44
r 0.872 4 3 cbr 1000 ------- 0 0.0 3.0 42 42
+ 0.876 0 4 cbr 1000 ------- 0 0.0 3.0 47 47
- 0.876 0 4 cbr 1000 ------- 0 0.0 3.0 47 47
r 0.878 0 4 cbr 1000 ------- 0 0.0 3.0 45 45
+ 0.878 4 3 cbr 1000 ------- 0 0.0 3.0 45 45
- 0.878 4 3 cbr 1000 ------- 0 0.0 3.0 45 45
r 0.88 4 3 cbr 1000 ------- 0 0.0 3.0 43 43
+ 0.884 0 4 cbr 1000 ------- 0 0.0 3.0 48 48
- 0.884 0 4 cbr 1000 ------- 0 0.0 3.0 48 48
r 0.886 0 4 cbr 1000 ------- 0 0.0 3.0 46 46
+ 0.886 4 3 cbr 1000 ------- 0 0.0 3.0 46 46
- 0.886 4 3 cbr 1000 ------- 0 0.0 3.0 46 46
r 0.888 4 3 cbr 1000 ------- 0 0.0 3.0 44 44
+ 0.892 0 4 cbr 1000 ------- 0 0.0 3.0 49 49
- 0.892 0 4 cbr 1000 ------- 0 0.0 3.0 49 49
r 0.894 0 4 cbr 1000 ------- 0 0.0 3.0 47 47
+ 0.894 4 3 cbr 1000 ------- 0 0.0 3.0 47 47
- 0.894 4 3 cbr 1000 ------- 0 0.0 3.0 47 47
r 0.896 4 3 cbr 1000 ------- 0 0.0 3.0 45 45
+ 0.9 0 4 cbr 1000 ------- 0 0.0 3.0 50 50
- 0.9 0 4 cbr 1000 ------- 0 0.0 3.0 50 50
r 0.902 0 4 cbr 1000 ------- 0 0.0 3.0 48 48
+ 0.902 4 3 cbr 1000 ------- 0 0.0 3.0 48 48
- 0.902 4 3 cbr 1000 ------- 0 0.0 3.0 48 48
r 0.904 4 3 cbr 1000 ------- 0 0.0 3.0 46 46
+ 0.908 0 4 cbr 1000 ------- 0 0.0 3.0 51 51
- 0.908 0 4 cbr 1000 ------- 0 0.0 3.0 51 51
r 0.91 0 4 cbr 1000 ------- 0 0.0 3.0 49 49
+ 0.91 4 3 cbr 1000 ------- 0 0.0 3.0 49 49
- 0.91 4 3 cbr 1000 ------- 0 0.0 3.0 49 49
r 0.912 4 3 cbr 1000 ------- 0 0.0 3.0 47 47
+ 0.916 0 4 cbr 1000 ------- 0 0.0 3.0 52 52
- 0.916 0 4 cbr 1000 ------- 0 0.0 3.0 52 52
r 0.918 0 4 cbr 1000 ------- 0 0.0 3.0 50 50
+ 0.918 4 3 cbr 1000 ------- 0 0.0 3.0 50 50
- 0.918 4 3 cbr 1000 ------- 0 0.0 3.0 50 50
r 0.92 4 3 cbr 1000 ------- 0 0.0 3.0 48 48
+ 0.924 0 4 cbr 1000 ------- 0 0.0 3.0 53 53
- 0.924 0 4 cbr 1000 ------- 0 0.0 3.0 53 53
r 0.926 0 4 cbr 1000 ------- 0 0.0 3.0 51 51
+ 0.926 4 3 cbr 1000 ------- 0 0.0 3.0 51 51
- 0.926 4 3 cbr 1000 ------- 0 0.0 3.0 51 51
r 0.928 4 3 cbr 1000 ------- 0 0.0 3.0 49 49
+ 0.932 0 4 cbr 1000 ------- 0 0.0 3.0 54 54
- 0.932 0 4 cbr 1000 ------- 0 0.0 3.0 54 54
r 0.934 0 4 cbr 1000 ------- 0 0.0 3.0 52 52
+ 0.934 4 3 cbr 1000 ------- 0 0.0 3.0 52 52
- 0.934 4 3 cbr 1000 ------- 0 0.0 3.0 52 52
r 0.936 4 3 cbr 1000 ------- 0 0.0 3.0 50 50
+ 0.94 0 4 cbr 1000 ------- 0 0.0 3.0 55 55
- 0.94 0 4 cbr 1000 ------- 0 0.0 3.0 55 55
r 0.942 0 4 cbr 1000 ------- 0 0.0 3.0 53 53
+ 0.942 4 3 cbr 1000 ------- 0 0.0 3.0 53 53
- 0.942 4 3 cbr 1000 ------- 0 0.0 3.0 53 53
r 0.944 4 3 cbr 1000 ------- 0 0.0 3.0 51 51
+ 0.948 0 4 cbr 1000 ------- 0 0.0 3.0 56 56
- 0.948 0 4 cbr 1000 ------- 0 0.0 3.0 56 56
r 0.95 0 4 cbr 1000 ------- 0 0.0 3.0 54 54
+ 0.95 4 3 cbr 1000 ------- 0 0.0 3.0 54 54
- 0.95 4 3 cbr 1000 ------- 0 0.0 3.0 54 54
r 0.952 4 3 cbr 1000 ------- 0 0.0 3.0 52 52
+ 0.956 0 4 cbr 1000 ------- 0 0.0 3.0 57 57
- 0.956 0 4 cbr 1000 ------- 0 0.0 3.0 57 57
r 0.958 0 4 cbr 1000 ------- 0 0.0 3.0 55 55
+ 0.958 4 3 cbr 1000 ------- 0 0.0 3.0 55 55
- 0.958 4 3 cbr 1000 ------- 0 0.0 3.0 55 55
r 0.96 4 3 cbr 1000 ------- 0 0.0 3.0 53 53
+ 0.964 0 4 cbr 1000 ------- 0 0.0 3.0 58 58
- 0.964 0 4 cbr 1000 ------- 0 0.0 3.0 58 58
r 0.966 0 4 cbr 1000 ------- 0 0.0 3.0 56 56
+ 0.966 4 3 cbr 1000 ------- 0 0.0 3.0 56 56
- 0.966 4 3 cbr 1000 ------- 0 0.0 3.0 56 56
r 0.968 4 3 cbr 1000 ------- 0 0.0 3.0 54 54
+ 0.972 0 4 cbr 1000 ------- 0 0.0 3.0 59 59
- 0.972 0 4 cbr 1000 ------- 0 0.0 3.0 59 59
r 0.974 0 4 cbr 1000 ------- 0 0.0 3.0 57 57
+ 0.974 4 3 cbr 1000 ------- 0 0.0 3.0 57 57
- 0.974 4 3 cbr 1000 ------- 0 0.0 3.0 57 57
r 0.976 4 3 cbr 1000 ------- 0 0.0 3.0 55 55
+ 0.98 0 4 cbr 1000 ------- 0 0.0 3.0 60 60
- 0.98 0 4 cbr 1000 ------- 0 0.0 3.0 60 60
r 0.982 0 4 cbr 1000 ------- 0 0.0 3.0 58 58
+ 0.982 4 3 cbr 1000 ------- 0 0.0 3.0 58 58
- 0.982 4 3 cbr 1000 ------- 0 0.0 3.0 58 58
r 0.984 4 3 cbr 1000 ------- 0 0.0 3.0 56 56
+ 0.988 0 4 cbr 1000 ------- 0 0.0 3.0 61 61
- 0.988 0 4 cbr 1000 ------- 0 0.0 3.0 61 61
r 0.99 0 4 cbr 1000 ------- 0 0.0 3.0 59 59
+ 0.99 4 3 cbr 1000 ------- 0 0.0 3.0 59 59
- 0.99 4 3 cbr 1000 ------- 0 0.0 3.0 59 59
r 0.992 4 3 cbr 1000 ------- 0 0.0 3.0 57 57
+ 0.996 0 4 cbr 1000 ------- 0 0.0 3.0 62 62
- 0.996 0 4 cbr 1000 ------- 0 0.0 3.0 62 62
r 0.998 0 4 cbr 1000 ------- 0 0.0 3.0 60 60
+ 0.998 4 3 cbr 1000 ------- 0 0.0 3.0 60 60
- 0.998 4 3 cbr 1000 ------- 0 0.0 3.0 60 60
r 1 4 3 cbr 1000 ------- 0 0.0 3.0 58 58
+ 1.004 0 4 cbr 1000 ------- 0 0.0 3.0 63 63
- 1.004 0 4 cbr 1000 ------- 0 0.0 3.0 63 63
r 1.006 0 4 cbr 1000 ------- 0 0.0 3.0 61 61
+ 1.006 4 3 cbr 1000 ------- 0 0.0 3.0 61 61
- 1.006 4 3 cbr 1000 ------- 0 0.0 3.0 61 61
r 1.008 4 3 cbr 1000 ------- 0 0.0 3.0 59 59
+ 1.012 0 4 cbr 1000 ------- 0 0.0 3.0 64 64
- 1.012 0 4 cbr 1000 ------- 0 0.0 3.0 64 64
r 1.014 0 4 cbr 1000 ------- 0 0.0 3.0 62 62
+ 1.014 4 3 cbr 1000 ------- 0 0.0 3.0 62 62
- 1.014 4 3 cbr 1000 ------- 0 0.0 3.0 62 62
r 1.016 4 3 cbr 1000 ------- 0 0.0 3.0 60 60
+ 1.02 0 4 cbr 1000 ------- 0 0.0 3.0 65 65
- 1.02 0 4 cbr 1000 ------- 0 0.0 3.0 65 65
r 1.022 0 4 cbr 1000 ------- 0 0.0 3.0 63 63
+ 1.022 4 3 cbr 1000 ------- 0 0.0 3.0 63 63
- 1.022 4 3 cbr 1000 ------- 0 0.0 3.0 63 63
r 1.024 4 3 cbr 1000 ------- 0 0.0 3.0 61 61
+ 1.028 0 4 cbr 1000 ------- 0 0.0 3.0 66 66
- 1.028 0 4 cbr 1000 ------- 0 0.0 3.0 66 66
r 1.03 0 4 cbr 1000 ------- 0 0.0 3.0 64 64
+ 1.03 4 3 cbr 1000 ------- 0 0.0 3.0 64 64
- 1.03 4 3 cbr 1000 ------- 0 0.0 3.0 64 64
r 1.032 4 3 cbr 1000 ------- 0 0.0 3.0 62 62
+ 1.036 0 4 cbr 1000 ------- 0 0.0 3.0 67 67
- 1.036 0 4 cbr 1000 ------- 0 0.0 3.0 67 67
r 1.038 0 4 cbr 1000 ------- 0 0.0 3.0 65 65
+ 1.038 4 3 cbr 1000 ------- 0 0.0 3.0 65 65
- 1.038 4 3 cbr 1000 ------- 0 0.0 3.0 65 65
r 1.04 4 3 cbr 1000 ------- 0 0.0 3.0 63 63
+ 1.044 0 4 cbr 1000 ------- 0 0.0 3.0 68 68
- 1.044 0 4 cbr 1000 ------- 0 0.0 3.0 68 68
r 1.046 0 4 cbr 1000 ------- 0 0.0 3.0 66 66
+ 1.046 4 3 cbr 1000 ------- 0 0.0 3.0 66 66
- 1.046 4 3 cbr 1000 ------- 0 0.0 3.0 66 66
r 1.048 4 3 cbr 1000 ------- 0 0.0 3.0 64 64
+ 1.052 0 4 cbr 1000 ------- 0 0.0 3.0 69 69
- 1.052 0 4 cbr 1000 ------- 0 0.0 3.0 69 69
r 1.054 0 4 cbr 1000 ------- 0 0.0 3.0 67 67
+ 1.054 4 3 cbr 1000 ------- 0 0.0 3.0 67 67
- 1.054 4 3 cbr 1000 ------- 0 0.0 3.0 67 67
r 1.056 4 3 cbr 1000 ------- 0 0.0 3.0 65 65
+ 1.06 0 4 cbr 1000 ------- 0 0.0 3.0 70 70
- 1.06 0 4 cbr 1000 ------- 0 0.0 3.0 70 70
r 1.062 0 4 cbr 1000 ------- 0 0.0 3.0 68 68
+ 1.062 4 3 cbr 1000 ------- 0 0.0 3.0 68 68
- 1.062 4 3 cbr 1000 ------- 0 0.0 3.0 68 68
r 1.064 4 3 cbr 1000 ------- 0 0.0 3.0 66 66
+ 1.068 0 4 cbr 1000 ------- 0 0.0 3.0 71 71
- 1.068 0 4 cbr 1000 ------- 0 0.0 3.0 71 71
r 1.07 0 4 cbr 1000 ------- 0 0.0 3.0 69 69
+ 1.07 4 3 cbr 1000 ------- 0 0.0 3.0 69 69
- 1.07 4 3 cbr 1000 ------- 0 0.0 3.0 69 69
r 1.072 4 3 cbr 1000 ------- 0 0.0 3.0 67 67
+ 1.076 0 4 cbr 1000 ------- 0 0.0 3.0 72 72
- 1.076 0 4 cbr 1000 ------- 0 0.0 3.0 72 72
r 1.078 0 4 cbr 1000 ------- 0 0.0 3.0 70 70
+ 1.078 4 3 cbr 1000 ------- 0 0.0 3.0 70 70
- 1.078 4 3 cbr 1000 ------- 0 0.0 3.0 70 70
r 1.08 4 3 cbr 1000 ------- 0 0.0 3.0 68 68
+ 1.084 0 4 cbr 1000 ------- 0 0.0 3.0 73 73
- 1.084 0 4 cbr 1000 ------- 0 0.0 3.0 73 73
r 1.086 0 4 cbr 1000 ------- 0 0.0 3.0 71 71
+ 1.086 4 3 cbr 1000 ------- 0 0.0 3.0 71 71
- 1.086 4 3 cbr 1000 ------- 0 0.0 3.0 71 71
r 1.088 4 3 cbr 1000 ------- 0 0.0 3.0 69 69
+ 1.092 0 4 cbr 1000 ------- 0 0.0 3.0 74 74
- 1.092 0 4 cbr 1000 ------- 0 0.0 3.0 74 74
r 1.094 0 4 cbr 1000 ------- 0 0.0 3.0 72 72
+ 1.094 4 3 cbr 1000 ------- 0 0.0 3.0 72 72
- 1.094 4 3 cbr 1000 ------- 0 0.0 3.0 72 72
r 1.096 4 3 cbr 1000 ------- 0 0.0 3.0 70 70
+ 1.1 0 4 cbr 1000 ------- 0 0.0 3.0 75 75
- 1.1 0 4 cbr 1000 ------- 0 0.0 3.0 75 75
r 1.102 0 4 cbr 1000 ------- 0 0.0 3.0 73 73
+ 1.102 4 3 cbr 1000 ------- 0 0.0 3.0 73 73
- 1.102 4 3 cbr 1000 ------- 0 0.0 3.0 73 73
r 1.104 4 3 cbr 1000 ------- 0 0.0 3.0 71 71
+ 1.108 0 4 cbr 1000 ------- 0 0.0 3.0 76 76
- 1.108 0 4 cbr 1000 ------- 0 0.0 3.0 76 76
r 1.11 0 4 cbr 1000 ------- 0 0.0 3.0 74 74
+ 1.11 4 3 cbr 1000 ------- 0 0.0 3.0 74 74
- 1.11 4 3 cbr 1000 ------- 0 0.0 3.0 74 74
r 1.112 4 3 cbr 1000 ------- 0 0.0 3.0 72 72
+ 1.116 0 4 cbr 1000 ------- 0 0.0 3.0 77 77
- 1.116 0 4 cbr 1000 ------- 0 0.0 3.0 77 77
r 1.118 0 4 cbr 1000 ------- 0 0.0 3.0 75 75
+ 1.118 4 3 cbr 1000 ------- 0 0.0 3.0 75 75
- 1.118 4 3 cbr 1000 ------- 0 0.0 3.0 75 75
r 1.12 4 3 cbr 1000 ------- 0 0.0 3.0 73 73
+ 1.124 0 4 cbr 1000 ------- 0 0.0 3.0 78 78
- 1.124 0 4 cbr 1000 ------- 0 0.0 3.0 78 78
r 1.126 0 4 cbr 1000 ------- 0 0.0 3.0 76 76
+ 1.126 4 3 cbr 1000 ------- 0 0.0 3.0 76 76
- 1.126 4 3 cbr 1000 ------- 0 0.0 3.0 76 76
r 1.128 4 3 cbr 1000 ------- 0 0.0 3.0 74 74
+ 1.132 0 4 cbr 1000 ------- 0 0.0 3.0 79 79
- 1.132 0 4 cbr 1000 ------- 0 0.0 3.0 79 79
r 1.134 0 4 cbr 1000 ------- 0 0.0 3.0 77 77
+ 1.134 4 3 cbr 1000 ------- 0 0.0 3.0 77 77
- 1.134 4 3 cbr 1000 ------- 0 0.0 3.0 77 77
r 1.136 4 3 cbr 1000 ------- 0 0.0 3.0 75 75
+ 1.14 0 4 cbr 1000 ------- 0 0.0 3.0 80 80
- 1.14 0 4 cbr 1000 ------- 0 0.0 3.0 80 80
r 1.142 0 4 cbr 1000 ------- 0 0.0 3.0 78 78
+ 1.142 4 3 cbr 1000 ------- 0 0.0 3.0 78 78
- 1.142 4 3 cbr 1000 ------- 0 0.0 3.0 78 78
r 1.144 4 3 cbr 1000 ------- 0 0.0 3.0 76 76
+ 1.148 0 4 cbr 1000 ------- 0 0.0 3.0 81 81
- 1.148 0 4 cbr 1000 ------- 0 0.0 3.0 81 81
r 1.15 0 4 cbr 1000 ------- 0 0.0 3.0 79 79
+ 1.15 4 3 cbr 1000 ------- 0 0.0 3.0 79 79
- 1.15 4 3 cbr 1000 ------- 0 0.0 3.0 79 79
r 1.152 4 3 cbr 1000 ------- 0 0.0 3.0 77 77
+ 1.156 0 4 cbr 1000 ------- 0 0.0 3.0 82 82
- 1.156 0 4 cbr 1000 ------- 0 0.0 3.0 82 82
r 1.158 0 4 cbr 1000 ------- 0 0.0 3.0 80 80
+ 1.158 4 3 cbr 1000 ------- 0 0.0 3.0 80 80
- 1.158 4 3 cbr 1000 ------- 0 0.0 3.0 80 80
r 1.16 4 3 cbr 1000 ------- 0 0.0 3.0 78 78
+ 1.164 0 4 cbr 1000 ------- 0 0.0 3.0 83 83
- 1.164 0 4 cbr 1000 ------- 0 0.0 3.0 83 83
r 1.166 0 4 cbr 1000 ------- 0 0.0 3.0 81 81
+ 1.166 4 3 cbr 1000 ------- 0 0.0 3.0 81 81
- 1.166 4 3 cbr 1000 ------- 0 0.0 3.0 81 81
r 1.168 4 3 cbr 1000 ------- 0 0.0 3.0 79 79
+ 1.172 0 4 cbr 1000 ------- 0 0.0 3.0 84 84
- 1.172 0 4 cbr 1000 ------- 0 0.0 3.0 84 84
r 1.174 0 4 cbr 1000 ------- 0 0.0 3.0 82 82
+ 1.174 4 3 cbr 1000 ------- 0 0.0 3.0 82 82
- 1.174 4 3 cbr 1000 ------- 0 0.0 3.0 82 82
r 1.176 4 3 cbr 1000 ------- 0 0.0 3.0 80 80
+ 1.18 0 4 cbr 1000 ------- 0 0.0 3.0 85 85
- 1.18 0 4 cbr 1000 ------- 0 0.0 3.0 85 85
r 1.182 0 4 cbr 1000 ------- 0 0.0 3.0 83 83
+ 1.182 4 3 cbr 1000 ------- 0 0.0 3.0 83 83
- 1.182 4 3 cbr 1000 ------- 0 0.0 3.0 83 83
r 1.184 4 3 cbr 1000 ------- 0 0.0 3.0 81 81
+ 1.188 0 4 cbr 1000 ------- 0 0.0 3.0 86 86
- 1.188 0 4 cbr 1000 ------- 0 0.0 3.0 86 86
r 1.19 0 4 cbr 1000 ------- 0 0.0 3.0 84 84
+ 1.19 4 3 cbr 1000 ------- 0 0.0 3.0 84 84
- 1.19 4 3 cbr 1000 ------- 0 0.0 3.0 84 84
r 1.192 4 3 cbr 1000 ------- 0 0.0 3.0 82 82
+ 1.196 0 4 cbr 1000 ------- 0 0.0 3.0 87 87
- 1.196 0 4 cbr 1000 ------- 0 0.0 3.0 87 87
r 1.198 0 4 cbr 1000 ------- 0 0.0 3.0 85 85
+ 1.198 4 3 cbr 1000 ------- 0 0.0 3.0 85 85
- 1.198 4 3 cbr 1000 ------- 0 0.0 3.0 85 85
r 1.2 4 3 cbr 1000 ------- 0 0.0 3.0 83 83
+ 1.204 0 4 cbr 1000 ------- 0 0.0 3.0 88 88
- 1.204 0 4 cbr 1000 ------- 0 0.0 3.0 88 88
r 1.206 0 4 cbr 1000 ------- 0 0.0 3.0 86 86
+ 1.206 4 3 cbr 1000 ------- 0 0.0 3.0 86 86
- 1.206 4 3 cbr 1000 ------- 0 0.0 3.0 86 86
r 1.208 4 3 cbr 1000 ------- 0 0.0 3.0 84 84
+ 1.212 0 4 cbr 1000 ------- 0 0.0 3.0 89 89
- 1.212 0 4 cbr 1000 ------- 0 0.0 3.0 89 89
r 1.214 0 4 cbr 1000 ------- 0 0.0 3.0 87 87
+ 1.214 4 3 cbr 1000 ------- 0 0.0 3.0 87 87
- 1.214 4 3 cbr 1000 ------- 0 0.0 3.0 87 87
r 1.216 4 3 cbr 1000 ------- 0 0.0 3.0 85 85
+ 1.22 0 4 cbr 1000 ------- 0 0.0 3.0 90 90
- 1.22 0 4 cbr 1000 ------- 0 0.0 3.0 90 90
r 1.222 0 4 cbr 1000 ------- 0 0.0 3.0 88 88
+ 1.222 4 3 cbr 1000 ------- 0 0.0 3.0 88 88
- 1.222 4 3 cbr 1000 ------- 0 0.0 3.0 88 88
r 1.224 4 3 cbr 1000 ------- 0 0.0 3.0 86 86
+ 1.228 0 4 cbr 1000 ------- 0 0.0 3.0 91 91
- 1.228 0 4 cbr 1000 ------- 0 0.0 3.0 91 91
r 1.23 0 4 cbr 1000 ------- 0 0.0 3.0 89 89
+ 1.23 4 3 cbr 1000 ------- 0 0.0 3.0 89 89
- 1.23 4 3 cbr 1000 ------- 0 0.0 3.0 89 89
r 1.232 4 3 cbr 1000 ------- 0 0.0 3.0 87 87
+ 1.236 0 4 cbr 1000 ------- 0 0.0 3.0 92 92
- 1.236 0 4 cbr 1000 ------- 0 0.0 3.0 92 92
r 1.238 0 4 cbr 1000 ------- 0 0.0 3.0 90 90
+ 1.238 4 3 cbr 1000 ------- 0 0.0 3.0 90 90
- 1.238 4 3 cbr 1000 ------- 0 0.0 3.0 90 90
r 1.24 4 3 cbr 1000 ------- 0 0.0 3.0 88 88
+ 1.244 0 4 cbr 1000 ------- 0 0.0 3.0 93 93
- 1.244 0 4 cbr 1000 ------- 0 0.0 3.0 93 93
r 1.246 0 4 cbr 1000 ------- 0 0.0 3.0 91 91
+ 1.246 4 3 cbr 1000 ------- 0 0.0 3.0 91 91
- 1.246 4 3 cbr 1000 ------- 0 0.0 3.0 91 91
r 1.248 4 3 cbr 1000 ------- 0 0.0 3.0 89 89
+ 1.252 0 4 cbr 1000 ------- 0 0.0 3.0 94 94
- 1.252 0 4 cbr 1000 ------- 0 0.0 3.0 94 94
r 1.254 0 4 cbr 1000 ------- 0 0.0 3.0 92 92
+ 1.254 4 3 cbr 1000 ------- 0 0.0 3.0 92 92
- 1.254 4 3 cbr 1000 ------- 0 0.0 3.0 92 92
r 1.256 4 3 cbr 1000 ------- 0 0.0 3.0 90 90
+ 1.26 0 4 cbr 1000 ------- 0 0.0 3.0 95 95
- 1.26 0 4 cbr 1000 ------- 0 0.0 3.0 95 95
r 1.262 0 4 cbr 1000 ------- 0 0.0 3.0 93 93
+ 1.262 4 3 cbr 1000 ------- 0 0.0 3.0 93 93
- 1.262 4 3 cbr 1000 ------- 0 0.0 3.0 93 93
r 1.264 4 3 cbr 1000 ------- 0 0.0 3.0 91 91
+ 1.268 0 4 cbr 1000 ------- 0 0.0 3.0 96 96
- 1.268 0 4 cbr 1000 ------- 0 0.0 3.0 96 96
r 1.27 0 4 cbr 1000 ------- 0 0.0 3.0 94 94
+ 1.27 4 3 cbr 1000 ------- 0 0.0 3.0 94 94
- 1.27 4 3 cbr 1000 ------- 0 0.0 3.0 94 94
r 1.272 4 3 cbr 1000 ------- 0 0.0 3.0 92 92
+ 1.276 0 4 cbr 1000 ------- 0 0.0 3.0 97 97
- 1.276 0 4 cbr 1000 ------- 0 0.0 3.0 97 97
r 1.278 0 4 cbr 1000 ------- 0 0.0 3.0 95 95
+ 1.278 4 3 cbr 1000 ------- 0 0.0 3.0 95 95
- 1.278 4 3 cbr 1000 ------- 0 0.0 3.0 95 95
r 1.28 4 3 cbr 1000 ------- 0 0.0 3.0 93 93
+ 1.284 0 4 cbr 1000 ------- 0 0.0 3.0 98 98
- 1.284 0 4 cbr 1000 ------- 0 0.0 3.0 98 98
r 1.286 0 4 cbr 1000 ------- 0 0.0 3.0 96 96
+ 1.286 4 3 cbr 1000 ------- 0 0.0 3.0 96 96
- 1.286 4 3 cbr 1000 ------- 0 0.0 3.0 96 96
r 1.288 4 3 cbr 1000 ------- 0 0.0 3.0 94 94
+ 1.292 0 4 cbr 1000 ------- 0 0.0 3.0 99 99
- 1.292 0 4 cbr 1000 ------- 0 0.0 3.0 99 99
r 1.294 0 4 cbr 1000 ------- 0 0.0 3.0 97 97
+ 1.294 4 3 cbr 1000 ------- 0 0.0 3.0 97 97
- 1.294 4 3 cbr 1000 ------- 0 0.0 3.0 97 97
r 1.296 4 3 cbr 1000 ------- 0 0.0 3.0 95 95
+ 1.3 0 4 cbr 1000 ------- 0 0.0 3.0 100 100
- 1.3 0 4 cbr 1000 ------- 0 0.0 3.0 100 100
r 1.302 0 4 cbr 1000 ------- 0 0.0 3.0 98 98
+ 1.302 4 3 cbr 1000 ------- 0 0.0 3.0 98 98
- 1.302 4 3 cbr 1000 ------- 0 0.0 3.0 98 98
r 1.304 4 3 cbr 1000 ------- 0 0.0 3.0 96 96
+ 1.308 0 4 cbr 1000 ------- 0 0.0 3.0 101 101
- 1.308 0 4 cbr 1000 ------- 0 0.0 3.0 101 101
r 1.31 0 4 cbr 1000 ------- 0 0.0 3.0 99 99
+ 1.31 4 3 cbr 1000 ------- 0 0.0 3.0 99 99
- 1.31 4 3 cbr 1000 ------- 0 0.0 3.0 99 99
r 1.312 4 3 cbr 1000 ------- 0 0.0 3.0 97 97
+ 1.316 0 4 cbr 1000 ------- 0 0.0 3.0 102 102
- 1.316 0 4 cbr 1000 ------- 0 0.0 3.0 102 102
r 1.318 0 4 cbr 1000 ------- 0 0.0 3.0 100 100
+ 1.318 4 3 cbr 1000 ------- 0 0.0 3.0 100 100
- 1.318 4 3 cbr 1000 ------- 0 0.0 3.0 100 100
r 1.32 4 3 cbr 1000 ------- 0 0.0 3.0 98 98
+ 1.324 0 4 cbr 1000 ------- 0 0.0 3.0 103 103
- 1.324 0 4 cbr 1000 ------- 0 0.0 3.0 103 103
r 1.326 0 4 cbr 1000 ------- 0 0.0 3.0 101 101
+ 1.326 4 3 cbr 1000 ------- 0 0.0 3.0 101 101
- 1.326 4 3 cbr 1000 ------- 0 0.0 3.0 101 101
r 1.328 4 3 cbr 1000 ------- 0 0.0 3.0 99 99
+ 1.332 0 4 cbr 1000 ------- 0 0.0 3.0 104 104
- 1.332 0 4 cbr 1000 ------- 0 0.0 3.0 104 104
r 1.334 0 4 cbr 1000 ------- 0 0.0 3.0 102 102
+ 1.334 4 3 cbr 1000 ------- 0 0.0 3.0 102 102
- 1.334 4 3 cbr 1000 ------- 0 0.0 3.0 102 102
r 1.336 4 3 cbr 1000 ------- 0 0.0 3.0 100 100
+ 1.34 0 4 cbr 1000 ------- 0 0.0 3.0 105 105
- 1.34 0 4 cbr 1000 ------- 0 0.0 3.0 105 105
r 1.342 0 4 cbr 1000 ------- 0 0.0 3.0 103 103
+ 1.342 4 3 cbr 1000 ------- 0 0.0 3.0 103 103
- 1.342 4 3 cbr 1000 ------- 0 0.0 3.0 103 103
r 1.344 4 3 cbr 1000 ------- 0 0.0 3.0 101 101
+ 1.348 0 4 cbr 1000 ------- 0 0.0 3.0 106 106
- 1.348 0 4 cbr 1000 ------- 0 0.0 3.0 106 106
r 1.35 0 4 cbr 1000 ------- 0 0.0 3.0 104 104
+ 1.35 4 3 cbr 1000 ------- 0 0.0 3.0 104 104
- 1.35 4 3 cbr 1000 ------- 0 0.0 3.0 104 104
r 1.352 4 3 cbr 1000 ------- 0 0.0 3.0 102 102
+ 1.356 0 4 cbr 1000 ------- 0 0.0 3.0 107 107
- 1.356 0 4 cbr 1000 ------- 0 0.0 3.0 107 107
r 1.358 0 4 cbr 1000 ------- 0 0.0 3.0 105 105
+ 1.358 4 3 cbr 1000 ------- 0 0.0 3.0 105 105
- 1.358 4 3 cbr 1000 ------- 0 0.0 3.0 105 105
r 1.36 4 3 cbr 1000 ------- 0 0.0 3.0 103 103
+ 1.364 0 4 cbr 1000 ------- 0 0.0 3.0 108 108
- 1.364 0 4 cbr 1000 ------- 0 0.0 3.0 108 108
r 1.366 0 4 cbr 1000 ------- 0 0.0 3.0 106 106
+ 1.366 4 3 cbr 1000 ------- 0 0.0 3.0 106 106
- 1.366 4 3 cbr 1000 ------- 0 0.0 3.0 106 106
r 1.368 4 3 cbr 1000 ------- 0 0.0 3.0 104 104
+ 1.372 0 4 cbr 1000 ------- 0 0.0 3.0 109 109
- 1.372 0 4 cbr 1000 ------- 0 0.0 3.0 109 109
r 1.374 0 4 cbr 1000 ------- 0 0.0 3.0 107 107
+ 1.374 4 3 cbr 1000 ------- 0 0.0 3.0 107 107
- 1.374 4 3 cbr 1000 ------- 0 0.0 3.0 107 107
r 1.376 4 3 cbr 1000 ------- 0 0.0 3.0 105 105
+ 1.38 0 4 cbr 1000 ------- 0 0.0 3.0 110 110
- 1.38 0 4 cbr 1000 ------- 0 0.0 3.0 110 110
r 1.382 0 4 cbr 1000 ------- 0 0.0 3.0 108 108
+ 1.382 4 3 cbr 1000 ------- 0 0.0 3.0 108 108
- 1.382 4 3 cbr 1000 ------- 0 0.0 3.0 108 108
r 1.384 4 3 cbr 1000 ------- 0 0.0 3.0 106 106
+ 1.388 0 4 cbr 1000 ------- 0 0.0 3.0 111 111
- 1.388 0 4 cbr 1000 ------- 0 0.0 3.0 111 111
r 1.39 0 4 cbr 1000 ------- 0 0.0 3.0 109 109
+ 1.39 4 3 cbr 1000 ------- 0 0.0 3.0 109 109
- 1.39 4 3 cbr 1000 ------- 0 0.0 3.0 109 109
r 1.392 4 3 cbr 1000 ------- 0 0.0 3.0 107 107
+ 1.396 0 4 cbr 1000 ------- 0 0.0 3.0 112 112
- 1.396 0 4 cbr 1000 ------- 0 0.0 3.0 112 112
r 1.398 0 4 cbr 1000 ------- 0 0.0 3.0 110 110
+ 1.398 4 3 cbr 1000 ------- 0 0.0 3.0 110 110
- 1.398 4 3 cbr 1000 ------- 0 0.0 3.0 110 110
r 1.4 4 3 cbr 1000 ------- 0 0.0 3.0 108 108
+ 1.404 0 4 cbr 1000 ------- 0 0.0 3.0 113 113