+ 0.1 0 2 tcp 40 ------- 0 0.0 6.0 0 0
- 0.1 0 2 tcp 40 ------- 0 0.0 6.0 0 0
+ 0.1 1 2 cbr 210 ------- 0 1.0 7.0 0 1
- 0.1 1 2 cbr 210 ------- 0 1.0 7.0 0 1
+ 0.10375 1 2 cbr 210 ------- 0 1.0 7.0 1 2
- 0.10375 1 2 cbr 210 ------- 0 1.0 7.0 1 2
+ 0.1075 1 2 cbr 210 ------- 0 1.0 7.0 2 3
- 0.1075 1 2 cbr 210 ------- 0 1.0 7.0 2 3
r 0.11032 0 2 tcp 40 ------- 0 0.0 6.0 0 0
+ 0.11032 2 3 tcp 40 ------- 0 0.0 6.0 0 0
- 0.11032 2 3 tcp 40 ------- 0 0.0 6.0 0 0
+ 0.11125 1 2 cbr 210 ------- 0 1.0 7.0 3 4
- 0.11125 1 2 cbr 210 ------- 0 1.0 7.0 3 4
r 0.11168 1 2 cbr 210 ------- 0 1.0 7.0 0 1
+ 0.11168 2 3 cbr 210 ------- 0 1.0 7.0 0 1
- 0.11168 2 3 cbr 210 ------- 0 1.0 7.0 0 1
+ 0.115 1 2 cbr 210 ------- 0 1.0 7.0 4 5
- 0.115 1 2 cbr 210 ------- 0 1.0 7.0 4 5
r 0.11543 1 2 cbr 210 ------- 0 1.0 7.0 1 2
+ 0.11543 2 3 cbr 210 ------- 0 1.0 7.0 1 2
- 0.11543 2 3 cbr 210 ------- 0 1.0 7.0 1 2
+ 0.11875 1 2 cbr 210 ------- 0 1.0 7.0 5 6
- 0.11875 1 2 cbr 210 ------- 0 1.0 7.0 5 6
r 0.11918 1 2 cbr 210 ------- 0 1.0 7.0 2 3
+ 0.11918 2 3 cbr 210 ------- 0 1.0 7.0 2 3
- 0.11918 2 3 cbr 210 ------- 0 1.0 7.0 2 3
r 0.120503 2 3 tcp 40 ------- 0 0.0 6.0 0 0
+ 0.120503 3 4 tcp 40 ------- 0 0.0 6.0 0 0
- 0.120503 3 4 tcp 40 ------- 0 0.0 6.0 0 0
+ 0.1225 1 2 cbr 210 ------- 0 1.0 7.0 6 7
- 0.1225 1 2 cbr 210 ------- 0 1.0 7.0 6 7
r 0.12264 2 3 cbr 210 ------- 0 1.0 7.0 0 1
+ 0.12264 3 5 cbr 210 ------- 0 1.0 7.0 0 1
- 0.12264 3 5 cbr 210 ------- 0 1.0 7.0 0 1
r 0.12293 1 2 cbr 210 ------- 0 1.0 7.0 3 4
+ 0.12293 2 3 cbr 210 ------- 0 1.0 7.0 3 4
- 0.12293 2 3 cbr 210 ------- 0 1.0 7.0 3 4
+ 0.12625 1 2 cbr 210 ------- 0 1.0 7.0 7 8
- 0.12625 1 2 cbr 210 ------- 0 1.0 7.0 7 8
r 0.12639 2 3 cbr 210 ------- 0 1.0 7.0 1 2
+ 0.12639 3 5 cbr 210 ------- 0 1.0 7.0 1 2
- 0.12639 3 5 cbr 210 ------- 0 1.0 7.0 1 2
r 0.12668 1 2 cbr 210 ------- 0 1.0 7.0 4 5
+ 0.12668 2 3 cbr 210 ------- 0 1.0 7.0 4 5
- 0.12668 2 3 cbr 210 ------- 0 1.0 7.0 4 5
+ 0.13 1 2 cbr 210 ------- 0 1.0 7.0 8 9
- 0.13 1 2 cbr 210 ------- 0 1.0 7.0 8 9
r 0.13014 2 3 cbr 210 ------- 0 1.0 7.0 2 3
+ 0.13014 3 5 cbr 210 ------- 0 1.0 7.0 2 3
- 0.13014 3 5 cbr 210 ------- 0 1.0 7.0 2 3
r 0.13043 1 2 cbr 210 ------- 0 1.0 7.0 5 6
+ 0.13043 2 3 cbr 210 ------- 0 1.0 7.0 5 6
- 0.13043 2 3 cbr 210 ------- 0 1.0 7.0 5 6
r 0.130823 3 4 tcp 40 ------- 0 0.0 6.0 0 0
+ 0.130823 4 6 tcp 40 ------- 0 0.0 6.0 0 0
- 0.130823 4 6 tcp 40 ------- 0 0.0 6.0 0 0
+ 0.13375 1 2 cbr 210 ------- 0 1.0 7.0 9 10
- 0.13375 1 2 cbr 210 ------- 0 1.0 7.0 9 10
r 0.13389 2 3 cbr 210 ------- 0 1.0 7.0 3 4
+ 0.13389 3 5 cbr 210 ------- 0 1.0 7.0 3 4
- 0.13389 3 5 cbr 210 ------- 0 1.0 7.0 3 4
r 0.13418 1 2 cbr 210 ------- 0 1.0 7.0 6 7
+ 0.13418 2 3 cbr 210 ------- 0 1.0 7.0 6 7
- 0.13418 2 3 cbr 210 ------- 0 1.0 7.0 6 7
r 0.13432 3 5 cbr 210 ------- 0 1.0 7.0 0 1
+ 0.13432 5 7 cbr 210 ------- 0 1.0 7.0 0 1
- 0.13432 5 7 cbr 210 ------- 0 1.0 7.0 0 1
+ 0.1375 1 2 cbr 210 ------- 0 1.0 7.0 10 11
- 0.1375 1 2 cbr 210 ------- 0 1.0 7.0 10 11
r 0.13764 2 3 cbr 210 ------- 0 1.0 7.0 4 5
+ 0.13764 3 5 cbr 210 ------- 0 1.0 7.0 4 5
- 0.13764 3 5 cbr 210 ------- 0 1.0 7.0 4 5
r 0.13793 1 2 cbr 210 ------- 0 1.0 7.0 7 8
+ 0.13793 2 3 cbr 210 ------- 0 1.0 7.0 7 8
- 0.13793 2 3 cbr 210 ------- 0 1.0 7.0 7 8
r 0.13807 3 5 cbr 210 ------- 0 1.0 7.0 1 2
+ 0.13807 5 7 cbr 210 ------- 0 1.0 7.0 1 2
- 0.13807 5 7 cbr 210 ------- 0 1.0 7.0 1 2
r 0.141143 4 6 tcp 40 ------- 0 0.0 6.0 0 0
+ 0.141143 6 4 ack 40 ------- 0 6.0 0.0 0 12
- 0.141143 6 4 ack 40 ------- 0 6.0 0.0 0 12
+ 0.14125 1 2 cbr 210 ------- 0 1.0 7.0 11 13
- 0.14125 1 2 cbr 210 ------- 0 1.0 7.0 11 13
r 0.14139 2 3 cbr 210 ------- 0 1.0 7.0 5 6
+ 0.14139 3 5 cbr 210 ------- 0 1.0 7.0 5 6
- 0.14139 3 5 cbr 210 ------- 0 1.0 7.0 5 6
r 0.14168 1 2 cbr 210 ------- 0 1.0 7.0 8 9
+ 0.14168 2 3 cbr 210 ------- 0 1.0 7.0 8 9
- 0.14168 2 3 cbr 210 ------- 0 1.0 7.0 8 9
r 0.14182 3 5 cbr 210 ------- 0 1.0 7.0 2 3
+ 0.14182 5 7 cbr 210 ------- 0 1.0 7.0 2 3
- 0.14182 5 7 cbr 210 ------- 0 1.0 7.0 2 3
+ 0.145 1 2 cbr 210 ------- 0 1.0 7.0 12 14
- 0.145 1 2 cbr 210 ------- 0 1.0 7.0 12 14
r 0.14514 2 3 cbr 210 ------- 0 1.0 7.0 6 7
+ 0.14514 3 5 cbr 210 ------- 0 1.0 7.0 6 7
- 0.14514 3 5 cbr 210 ------- 0 1.0 7.0 6 7
r 0.14543 1 2 cbr 210 ------- 0 1.0 7.0 9 10
+ 0.14543 2 3 cbr 210 ------- 0 1.0 7.0 9 10
- 0.14543 2 3 cbr 210 ------- 0 1.0 7.0 9 10
r 0.14557 3 5 cbr 210 ------- 0 1.0 7.0 3 4
+ 0.14557 5 7 cbr 210 ------- 0 1.0 7.0 3 4
- 0.14557 5 7 cbr 210 ------- 0 1.0 7.0 3 4
r 0.146 5 7 cbr 210 ------- 0 1.0 7.0 0 1
+ 0.14875 1 2 cbr 210 ------- 0 1.0 7.0 13 15
- 0.14875 1 2 cbr 210 ------- 0 1.0 7.0 13 15
r 0.14889 2 3 cbr 210 ------- 0 1.0 7.0 7 8
+ 0.14889 3 5 cbr 210 ------- 0 1.0 7.0 7 8
- 0.14889 3 5 cbr 210 ------- 0 1.0 7.0 7 8
r 0.14918 1 2 cbr 210 ------- 0 1.0 7.0 10 11
+ 0.14918 2 3 cbr 210 ------- 0 1.0 7.0 10 11
- 0.14918 2 3 cbr 210 ------- 0 1.0 7.0 10 11
r 0.14932 3 5 cbr 210 ------- 0 1.0 7.0 4 5
+ 0.14932 5 7 cbr 210 ------- 0 1.0 7.0 4 5
- 0.14932 5 7 cbr 210 ------- 0 1.0 7.0 4 5
r 0.14975 5 7 cbr 210 ------- 0 1.0 7.0 1 2
r 0.151463 6 4 ack 40 ------- 0 6.0 0.0 0 12
+ 0.151463 4 3 ack 40 ------- 0 6.0 0.0 0 12
- 0.151463 4 3 ack 40 ------- 0 6.0 0.0 0 12
+ 0.1525 1 2 cbr 210 ------- 0 1.0 7.0 14 16
- 0.1525 1 2 cbr 210 ------- 0 1.0 7.0 14 16
r 0.15264 2 3 cbr 210 ------- 0 1.0 7.0 8 9
+ 0.15264 3 5 cbr 210 ------- 0 1.0 7.0 8 9
- 0.15264 3 5 cbr 210 ------- 0 1.0 7.0 8 9
r 0.15293 1 2 cbr 210 ------- 0 1.0 7.0 11 13
+ 0.15293 2 3 cbr 210 ------- 0 1.0 7.0 11 13
- 0.15293 2 3 cbr 210 ------- 0 1.0 7.0 11 13
r 0.15307 3 5 cbr 210 ------- 0 1.0 7.0 5 6
+ 0.15307 5 7 cbr 210 ------- 0 1.0 7.0 5 6
- 0.15307 5 7 cbr 210 ------- 0 1.0 7.0 5 6
r 0.1535 5 7 cbr 210 ------- 0 1.0 7.0 2 3
+ 0.15625 1 2 cbr 210 ------- 0 1.0 7.0 15 17
- 0.15625 1 2 cbr 210 ------- 0 1.0 7.0 15 17
r 0.15639 2 3 cbr 210 ------- 0 1.0 7.0 9 10
+ 0.15639 3 5 cbr 210 ------- 0 1.0 7.0 9 10
- 0.15639 3 5 cbr 210 ------- 0 1.0 7.0 9 10
r 0.15668 1 2 cbr 210 ------- 0 1.0 7.0 12 14
+ 0.15668 2 3 cbr 210 ------- 0 1.0 7.0 12 14
- 0.15668 2 3 cbr 210 ------- 0 1.0 7.0 12 14
r 0.15682 3 5 cbr 210 ------- 0 1.0 7.0 6 7
+ 0.15682 5 7 cbr 210 ------- 0 1.0 7.0 6 7
- 0.15682 5 7 cbr 210 ------- 0 1.0 7.0 6 7
r 0.15725 5 7 cbr 210 ------- 0 1.0 7.0 3 4
+ 0.16 1 2 cbr 210 ------- 0 1.0 7.0 16 18
- 0.16 1 2 cbr 210 ------- 0 1.0 7.0 16 18
r 0.16014 2 3 cbr 210 ------- 0 1.0 7.0 10 11
+ 0.16014 3 5 cbr 210 ------- 0 1.0 7.0 10 11
- 0.16014 3 5 cbr 210 ------- 0 1.0 7.0 10 11
r 0.16043 1 2 cbr 210 ------- 0 1.0 7.0 13 15
+ 0.16043 2 3 cbr 210 ------- 0 1.0 7.0 13 15
- 0.16043 2 3 cbr 210 ------- 0 1.0 7.0 13 15
r 0.16057 3 5 cbr 210 ------- 0 1.0 7.0 7 8
+ 0.16057 5 7 cbr 210 ------- 0 1.0 7.0 7 8
- 0.16057 5 7 cbr 210 ------- 0 1.0 7.0 7 8
r 0.161 5 7 cbr 210 ------- 0 1.0 7.0 4 5
r 0.161783 4 3 ack 40 ------- 0 6.0 0.0 0 12
+ 0.161783 3 2 ack 40 ------- 0 6.0 0.0 0 12
- 0.161783 3 2 ack 40 ------- 0 6.0 0.0 0 12
+ 0.16375 1 2 cbr 210 ------- 0 1.0 7.0 17 19
- 0.16375 1 2 cbr 210 ------- 0 1.0 7.0 17 19
r 0.16389 2 3 cbr 210 ------- 0 1.0 7.0 11 13
+ 0.16389 3 5 cbr 210 ------- 0 1.0 7.0 11 13
- 0.16389 3 5 cbr 210 ------- 0 1.0 7.0 11 13
r 0.16418 1 2 cbr 210 ------- 0 1.0 7.0 14 16
+ 0.16418 2 3 cbr 210 ------- 0 1.0 7.0 14 16
- 0.16418 2 3 cbr 210 ------- 0 1.0 7.0 14 16
r 0.16432 3 5 cbr 210 ------- 0 1.0 7.0 8 9
+ 0.16432 5 7 cbr 210 ------- 0 1.0 7.0 8 9
- 0.16432 5 7 cbr 210 ------- 0 1.0 7.0 8 9
r 0.16475 5 7 cbr 210 ------- 0 1.0 7.0 5 6
+ 0.1675 1 2 cbr 210 ------- 0 1.0 7.0 18 20
- 0.1675 1 2 cbr 210 ------- 0 1.0 7.0 18 20
r 0.16764 2 3 cbr 210 ------- 0 1.0 7.0 12 14
+ 0.16764 3 5 cbr 210 ------- 0 1.0 7.0 12 14
- 0.16764 3 5 cbr 210 ------- 0 1.0 7.0 12 14
r 0.16793 1 2 cbr 210 ------- 0 1.0 7.0 15 17
+ 0.16793 2 3 cbr 210 ------- 0 1.0 7.0 15 17
- 0.16793 2 3 cbr 210 ------- 0 1.0 7.0 15 17
r 0.16807 3 5 cbr 210 ------- 0 1.0 7.0 9 10
+ 0.16807 5 7 cbr 210 ------- 0 1.0 7.0 9 10
- 0.16807 5 7 cbr 210 ------- 0 1.0 7.0 9 10
r 0.1685 5 7 cbr 210 ------- 0 1.0 7.0 6 7
+ 0.17125 1 2 cbr 210 ------- 0 1.0 7.0 19 21
- 0.17125 1 2 cbr 210 ------- 0 1.0 7.0 19 21
r 0.17139 2 3 cbr 210 ------- 0 1.0 7.0 13 15
+ 0.17139 3 5 cbr 210 ------- 0 1.0 7.0 13 15
- 0.17139 3 5 cbr 210 ------- 0 1.0 7.0 13 15
r 0.17168 1 2 cbr 210 ------- 0 1.0 7.0 16 18
+ 0.17168 2 3 cbr 210 ------- 0 1.0 7.0 16 18
- 0.17168 2 3 cbr 210 ------- 0 1.0 7.0 16 18
r 0.17182 3 5 cbr 210 ------- 0 1.0 7.0 10 11
+ 0.17182 5 7 cbr 210 ------- 0 1.0 7.0 10 11
- 0.17182 5 7 cbr 210 ------- 0 1.0 7.0 10 11
r 0.171966 3 2 ack 40 ------- 0 6.0 0.0 0 12
+ 0.171966 2 0 ack 40 ------- 0 6.0 0.0 0 12
- 0.171966 2 0 ack 40 ------- 0 6.0 0.0 0 12
r 0.17225 5 7 cbr 210 ------- 0 1.0 7.0 7 8
+ 0.175 1 2 cbr 210 ------- 0 1.0 7.0 20 22
- 0.175 1 2 cbr 210 ------- 0 1.0 7.0 20 22
r 0.17514 2 3 cbr 210 ------- 0 1.0 7.0 14 16
+ 0.17514 3 5 cbr 210 ------- 0 1.0 7.0 14 16
- 0.17514 3 5 cbr 210 ------- 0 1.0 7.0 14 16
r 0.17543 1 2 cbr 210 ------- 0 1.0 7.0 17 19
+ 0.17543 2 3 cbr 210 ------- 0 1.0 7.0 17 19
- 0.17543 2 3 cbr 210 ------- 0 1.0 7.0 17 19
r 0.17557 3 5 cbr 210 ------- 0 1.0 7.0 11 13
+ 0.17557 5 7 cbr 210 ------- 0 1.0 7.0 11 13
- 0.17557 5 7 cbr 210 ------- 0 1.0 7.0 11 13
r 0.176 5 7 cbr 210 ------- 0 1.0 7.0 8 9
+ 0.17875 1 2 cbr 210 ------- 0 1.0 7.0 21 23
- 0.17875 1 2 cbr 210 ------- 0 1.0 7.0 21 23
r 0.17889 2 3 cbr 210 ------- 0 1.0 7.0 15 17
+ 0.17889 3 5 cbr 210 ------- 0 1.0 7.0 15 17
- 0.17889 3 5 cbr 210 ------- 0 1.0 7.0 15 17
r 0.17918 1 2 cbr 210 ------- 0 1.0 7.0 18 20
+ 0.17918 2 3 cbr 210 ------- 0 1.0 7.0 18 20
- 0.17918 2 3 cbr 210 ------- 0 1.0 7.0 18 20
r 0.17932 3 5 cbr 210 ------- 0 1.0 7.0 12 14
+ 0.17932 5 7 cbr 210 ------- 0 1.0 7.0 12 14
- 0.17932 5 7 cbr 210 ------- 0 1.0 7.0 12 14
r 0.17975 5 7 cbr 210 ------- 0 1.0 7.0 9 10
r 0.182286 2 0 ack 40 ------- 0 6.0 0.0 0 12
+ 0.182286 0 2 tcp 1040 ------- 0 0.0 6.0 1 24
- 0.182286 0 2 tcp 1040 ------- 0 0.0 6.0 1 24
+ 0.182286 0 2 tcp 1040 ------- 0 0.0 6.0 2 25
+ 0.1825 1 2 cbr 210 ------- 0 1.0 7.0 22 26
- 0.1825 1 2 cbr 210 ------- 0 1.0 7.0 22 26
r 0.18264 2 3 cbr 210 ------- 0 1.0 7.0 16 18
+ 0.18264 3 5 cbr 210 ------- 0 1.0 7.0 16 18
- 0.18264 3 5 cbr 210 ------- 0 1.0 7.0 16 18
r 0.18293 1 2 cbr 210 ------- 0 1.0 7.0 19 21
+ 0.18293 2 3 cbr 210 ------- 0 1.0 7.0 19 21
- 0.18293 2 3 cbr 210 ------- 0 1.0 7.0 19 21
r 0.18307 3 5 cbr 210 ------- 0 1.0 7.0 13 15
+ 0.18307 5 7 cbr 210 ------- 0 1.0 7.0 13 15
- 0.18307 5 7 cbr 210 ------- 0 1.0 7.0 13 15
r 0.1835 5 7 cbr 210 ------- 0 1.0 7.0 10 11
+ 0.18625 1 2 cbr 210 ------- 0 1.0 7.0 23 27
- 0.18625 1 2 cbr 210 ------- 0 1.0 7.0 23 27
r 0.18639 2 3 cbr 210 ------- 0 1.0 7.0 17 19
+ 0.18639 3 5 cbr 210 ------- 0 1.0 7.0 17 19
- 0.18639 3 5 cbr 210 ------- 0 1.0 7.0 17 19
r 0.18668 1 2 cbr 210 ------- 0 1.0 7.0 20 22
+ 0.18668 2 3 cbr 210 ------- 0 1.0 7.0 20 22
- 0.18668 2 3 cbr 210 ------- 0 1.0 7.0 20 22
r 0.18682 3 5 cbr 210 ------- 0 1.0 7.0 14 16
+ 0.18682 5 7 cbr 210 ------- 0 1.0 7.0 14 16
- 0.18682 5 7 cbr 210 ------- 0 1.0 7.0 14 16
r 0.18725 5 7 cbr 210 ------- 0 1.0 7.0 11 13
+ 0.19 1 2 cbr 210 ------- 0 1.0 7.0 24 28
- 0.19 1 2 cbr 210 ------- 0 1.0 7.0 24 28
r 0.19014 2 3 cbr 210 ------- 0 1.0 7.0 18 20
+ 0.19014 3 5 cbr 210 ------- 0 1.0 7.0 18 20
- 0.19014 3 5 cbr 210 ------- 0 1.0 7.0 18 20
r 0.19043 1 2 cbr 210 ------- 0 1.0 7.0 21 23
+ 0.19043 2 3 cbr 210 ------- 0 1.0 7.0 21 23
- 0.19043 2 3 cbr 210 ------- 0 1.0 7.0 21 23
r 0.19057 3 5 cbr 210 ------- 0 1.0 7.0 15 17
+ 0.19057 5 7 cbr 210 ------- 0 1.0 7.0 15 17
- 0.19057 5 7 cbr 210 ------- 0 1.0 7.0 15 17
- 0.190606 0 2 tcp 1040 ------- 0 0.0 6.0 2 25
r 0.191 5 7 cbr 210 ------- 0 1.0 7.0 12 14
+ 0.19375 1 2 cbr 210 ------- 0 1.0 7.0 25 29
- 0.19375 1 2 cbr 210 ------- 0 1.0 7.0 25 29
r 0.19389 2 3 cbr 210 ------- 0 1.0 7.0 19 21
+ 0.19389 3 5 cbr 210 ------- 0 1.0 7.0 19 21
- 0.19389 3 5 cbr 210 ------- 0 1.0 7.0 19 21
r 0.19418 1 2 cbr 210 ------- 0 1.0 7.0 22 26
+ 0.19418 2 3 cbr 210 ------- 0 1.0 7.0 22 26
- 0.19418 2 3 cbr 210 ------- 0 1.0 7.0 22 26
r 0.19432 3 5 cbr 210 ------- 0 1.0 7.0 16 18
+ 0.19432 5 7 cbr 210 ------- 0 1.0 7.0 16 18
- 0.19432 5 7 cbr 210 ------- 0 1.0 7.0 16 18
r 0.19475 5 7 cbr 210 ------- 0 1.0 7.0 13 15
+ 0.1975 1 2 cbr 210 ------- 0 1.0 7.0 26 30
- 0.1975 1 2 cbr 210 ------- 0 1.0 7.0 26 30
r 0.19764 2 3 cbr 210 ------- 0 1.0 7.0 20 22
+ 0.19764 3 5 cbr 210 ------- 0 1.0 7.0 20 22
- 0.19764 3 5 cbr 210 ------- 0 1.0 7.0 20 22
r 0.19793 1 2 cbr 210 ------- 0 1.0 7.0 23 27
+ 0.19793 2 3 cbr 210 ------- 0 1.0 7.0 23 27
- 0.19793 2 3 cbr 210 ------- 0 1.0 7.0 23 27
r 0.19807 3 5 cbr 210 ------- 0 1.0 7.0 17 19
+ 0.19807 5 7 cbr 210 ------- 0 1.0 7.0 17 19
- 0.19807 5 7 cbr 210 ------- 0 1.0 7.0 17 19
r 0.1985 5 7 cbr 210 ------- 0 1.0 7.0 14 16
r 0.200606 0 2 tcp 1040 ------- 0 0.0 6.0 1 24
+ 0.200606 2 3 tcp 1040 ------- 0 0.0 6.0 1 24
- 0.200606 2 3 tcp 1040 ------- 0 0.0 6.0 1 24
+ 0.20125 1 2 cbr 210 ------- 0 1.0 7.0 27 31
- 0.20125 1 2 cbr 210 ------- 0 1.0 7.0 27 31
r 0.20139 2 3 cbr 210 ------- 0 1.0 7.0 21 23
+ 0.20139 3 5 cbr 210 ------- 0 1.0 7.0 21 23
- 0.20139 3 5 cbr 210 ------- 0 1.0 7.0 21 23
r 0.20168 1 2 cbr 210 ------- 0 1.0 7.0 24 28
+ 0.20168 2 3 cbr 210 ------- 0 1.0 7.0 24 28
r 0.20182 3 5 cbr 210 ------- 0 1.0 7.0 18 20
+ 0.20182 5 7 cbr 210 ------- 0 1.0 7.0 18 20
- 0.20182 5 7 cbr 210 ------- 0 1.0 7.0 18 20
r 0.20225 5 7 cbr 210 ------- 0 1.0 7.0 15 17
+ 0.205 1 2 cbr 210 ------- 0 1.0 7.0 28 32
- 0.205 1 2 cbr 210 ------- 0 1.0 7.0 28 32
r 0.20514 2 3 cbr 210 ------- 0 1.0 7.0 22 26
+ 0.20514 3 5 cbr 210 ------- 0 1.0 7.0 22 26
- 0.20514 3 5 cbr 210 ------- 0 1.0 7.0 22 26
- 0.20536 2 3 cbr 210 ------- 0 1.0 7.0 24 28
r 0.20543 1 2 cbr 210 ------- 0 1.0 7.0 25 29
+ 0.20543 2 3 cbr 210 ------- 0 1.0 7.0 25 29
r 0.20557 3 5 cbr 210 ------- 0 1.0 7.0 19 21
+ 0.20557 5 7 cbr 210 ------- 0 1.0 7.0 19 21
- 0.20557 5 7 cbr 210 ------- 0 1.0 7.0 19 21
r 0.206 5 7 cbr 210 ------- 0 1.0 7.0 16 18
- 0.20632 2 3 cbr 210 ------- 0 1.0 7.0 25 29
+ 0.20875 1 2 cbr 210 ------- 0 1.0 7.0 29 33
- 0.20875 1 2 cbr 210 ------- 0 1.0 7.0 29 33
r 0.20889 2 3 cbr 210 ------- 0 1.0 7.0 23 27
+ 0.20889 3 5 cbr 210 ------- 0 1.0 7.0 23 27
- 0.20889 3 5 cbr 210 ------- 0 1.0 7.0 23 27
r 0.208926 0 2 tcp 1040 ------- 0 0.0 6.0 2 25
+ 0.208926 2 3 tcp 1040 ------- 0 0.0 6.0 2 25
- 0.208926 2 3 tcp 1040 ------- 0 0.0 6.0 2 25
r 0.20918 1 2 cbr 210 ------- 0 1.0 7.0 26 30
+ 0.20918 2 3 cbr 210 ------- 0 1.0 7.0 26 30
r 0.20932 3 5 cbr 210 ------- 0 1.0 7.0 20 22
+ 0.20932 5 7 cbr 210 ------- 0 1.0 7.0 20 22
- 0.20932 5 7 cbr 210 ------- 0 1.0 7.0 20 22
r 0.20975 5 7 cbr 210 ------- 0 1.0 7.0 17 19
+ 0.2125 1 2 cbr 210 ------- 0 1.0 7.0 30 34
- 0.2125 1 2 cbr 210 ------- 0 1.0 7.0 30 34
r 0.21293 1 2 cbr 210 ------- 0 1.0 7.0 27 31
+ 0.21293 2 3 cbr 210 ------- 0 1.0 7.0 27 31
r 0.21307 3 5 cbr 210 ------- 0 1.0 7.0 21 23
+ 0.21307 5 7 cbr 210 ------- 0 1.0 7.0 21 23
- 0.21307 5 7 cbr 210 ------- 0 1.0 7.0 21 23
r 0.2135 5 7 cbr 210 ------- 0 1.0 7.0 18 20
- 0.21368 2 3 cbr 210 ------- 0 1.0 7.0 26 30
- 0.21464 2 3 cbr 210 ------- 0 1.0 7.0 27 31
r 0.21536 2 3 tcp 1040 ------- 0 0.0 6.0 1 24
+ 0.21536 3 4 tcp 1040 ------- 0 0.0 6.0 1 24
- 0.21536 3 4 tcp 1040 ------- 0 0.0 6.0 1 24
+ 0.21625 1 2 cbr 210 ------- 0 1.0 7.0 31 35
- 0.21625 1 2 cbr 210 ------- 0 1.0 7.0 31 35
r 0.21632 2 3 cbr 210 ------- 0 1.0 7.0 24 28
+ 0.21632 3 5 cbr 210 ------- 0 1.0 7.0 24 28
- 0.21632 3 5 cbr 210 ------- 0 1.0 7.0 24 28
r 0.21668 1 2 cbr 210 ------- 0 1.0 7.0 28 32
+ 0.21668 2 3 cbr 210 ------- 0 1.0 7.0 28 32
- 0.21668 2 3 cbr 210 ------- 0 1.0 7.0 28 32
r 0.21682 3 5 cbr 210 ------- 0 1.0 7.0 22 26
+ 0.21682 5 7 cbr 210 ------- 0 1.0 7.0 22 26
- 0.21682 5 7 cbr 210 ------- 0 1.0 7.0 22 26
r 0.21725 5 7 cbr 210 ------- 0 1.0 7.0 19 21
r 0.21728 2 3 cbr 210 ------- 0 1.0 7.0 25 29
+ 0.21728 3 5 cbr 210 ------- 0 1.0 7.0 25 29
- 0.218 3 5 cbr 210 ------- 0 1.0 7.0 25 29
+ 0.22 1 2 cbr 210 ------- 0 1.0 7.0 32 36
- 0.22 1 2 cbr 210 ------- 0 1.0 7.0 32 36
r 0.22043 1 2 cbr 210 ------- 0 1.0 7.0 29 33
+ 0.22043 2 3 cbr 210 ------- 0 1.0 7.0 29 33
- 0.22043 2 3 cbr 210 ------- 0 1.0 7.0 29 33
r 0.22057 3 5 cbr 210 ------- 0 1.0 7.0 23 27
+ 0.22057 5 7 cbr 210 ------- 0 1.0 7.0 23 27
- 0.22057 5 7 cbr 210 ------- 0 1.0 7.0 23 27
r 0.221 5 7 cbr 210 ------- 0 1.0 7.0 20 22
r 0.22368 2 3 tcp 1040 ------- 0 0.0 6.0 2 25
+ 0.22368 3 4 tcp 1040 ------- 0 0.0 6.0 2 25
- 0.22368 3 4 tcp 1040 ------- 0 0.0 6.0 2 25
+ 0.22375 1 2 cbr 210 ------- 0 1.0 7.0 33 37
- 0.22375 1 2 cbr 210 ------- 0 1.0 7.0 33 37
r 0.22418 1 2 cbr 210 ------- 0 1.0 7.0 30 34
+ 0.22418 2 3 cbr 210 ------- 0 1.0 7.0 30 34
- 0.22418 2 3 cbr 210 ------- 0 1.0 7.0 30 34
r 0.22464 2 3 cbr 210 ------- 0 1.0 7.0 26 30
+ 0.22464 3 5 cbr 210 ------- 0 1.0 7.0 26 30
- 0.22464 3 5 cbr 210 ------- 0 1.0 7.0 26 30
r 0.22475 5 7 cbr 210 ------- 0 1.0 7.0 21 23
r 0.2256 2 3 cbr 210 ------- 0 1.0 7.0 27 31
+ 0.2256 3 5 cbr 210 ------- 0 1.0 7.0 27 31
- 0.22632 3 5 cbr 210 ------- 0 1.0 7.0 27 31
+ 0.2275 1 2 cbr 210 ------- 0 1.0 7.0 34 38
- 0.2275 1 2 cbr 210 ------- 0 1.0 7.0 34 38
r 0.22764 2 3 cbr 210 ------- 0 1.0 7.0 28 32
+ 0.22764 3 5 cbr 210 ------- 0 1.0 7.0 28 32
r 0.22793 1 2 cbr 210 ------- 0 1.0 7.0 31 35
+ 0.22793 2 3 cbr 210 ------- 0 1.0 7.0 31 35
- 0.22793 2 3 cbr 210 ------- 0 1.0 7.0 31 35
- 0.228 3 5 cbr 210 ------- 0 1.0 7.0 28 32
r 0.228 3 5 cbr 210 ------- 0 1.0 7.0 24 28
+ 0.228 5 7 cbr 210 ------- 0 1.0 7.0 24 28
- 0.228 5 7 cbr 210 ------- 0 1.0 7.0 24 28
r 0.2285 5 7 cbr 210 ------- 0 1.0 7.0 22 26
r 0.22968 3 5 cbr 210 ------- 0 1.0 7.0 25 29
+ 0.22968 5 7 cbr 210 ------- 0 1.0 7.0 25 29
- 0.22968 5 7 cbr 210 ------- 0 1.0 7.0 25 29
+ 0.23125 1 2 cbr 210 ------- 0 1.0 7.0 35 39
- 0.23125 1 2 cbr 210 ------- 0 1.0 7.0 35 39
r 0.23139 2 3 cbr 210 ------- 0 1.0 7.0 29 33
+ 0.23139 3 5 cbr 210 ------- 0 1.0 7.0 29 33
- 0.23139 3 5 cbr 210 ------- 0 1.0 7.0 29 33
r 0.23168 1 2 cbr 210 ------- 0 1.0 7.0 32 36
+ 0.23168 2 3 cbr 210 ------- 0 1.0 7.0 32 36
- 0.23168 2 3 cbr 210 ------- 0 1.0 7.0 32 36
r 0.23225 5 7 cbr 210 ------- 0 1.0 7.0 23 27
r 0.23368 3 4 tcp 1040 ------- 0 0.0 6.0 1 24
+ 0.23368 4 6 tcp 1040 ------- 0 0.0 6.0 1 24
- 0.23368 4 6 tcp 1040 ------- 0 0.0 6.0 1 24
+ 0.235 1 2 cbr 210 ------- 0 1.0 7.0 36 40
- 0.235 1 2 cbr 210 ------- 0 1.0 7.0 36 40
r 0.23514 2 3 cbr 210 ------- 0 1.0 7.0 30 34
+ 0.23514 3 5 cbr 210 ------- 0 1.0 7.0 30 34
- 0.23514 3 5 cbr 210 ------- 0 1.0 7.0 30 34
r 0.23543 1 2 cbr 210 ------- 0 1.0 7.0 33 37
+ 0.23543 2 3 cbr 210 ------- 0 1.0 7.0 33 37
- 0.23543 2 3 cbr 210 ------- 0 1.0 7.0 33 37
r 0.23632 3 5 cbr 210 ------- 0 1.0 7.0 26 30
+ 0.23632 5 7 cbr 210 ------- 0 1.0 7.0 26 30
- 0.23632 5 7 cbr 210 ------- 0 1.0 7.0 26 30
r 0.238 3 5 cbr 210 ------- 0 1.0 7.0 27 31
+ 0.238 5 7 cbr 210 ------- 0 1.0 7.0 27 31
- 0.238 5 7 cbr 210 ------- 0 1.0 7.0 27 31
+ 0.23875 1 2 cbr 210 ------- 0 1.0 7.0 37 41
- 0.23875 1 2 cbr 210 ------- 0 1.0 7.0 37 41
r 0.23889 2 3 cbr 210 ------- 0 1.0 7.0 31 35
+ 0.23889 3 5 cbr 210 ------- 0 1.0 7.0 31 35
- 0.23889 3 5 cbr 210 ------- 0 1.0 7.0 31 35
r 0.23918 1 2 cbr 210 ------- 0 1.0 7.0 34 38
+ 0.23918 2 3 cbr 210 ------- 0 1.0 7.0 34 38
- 0.23918 2 3 cbr 210 ------- 0 1.0 7.0 34 38
r 0.23968 3 5 cbr 210 ------- 0 1.0 7.0 28 32
+ 0.23968 5 7 cbr 210 ------- 0 1.0 7.0 28 32
- 0.23968 5 7 cbr 210 ------- 0 1.0 7.0 28 32
r 0.23968 5 7 cbr 210 ------- 0 1.0 7.0 24 28
r 0.24136 5 7 cbr 210 ------- 0 1.0 7.0 25 29
r 0.242 3 4 tcp 1040 ------- 0 0.0 6.0 2 25
+ 0.242 4 6 tcp 1040 ------- 0 0.0 6.0 2 25
- 0.242 4 6 tcp 1040 ------- 0 0.0 6.0 2 25
+ 0.2425 1 2 cbr 210 ------- 0 1.0 7.0 38 42
- 0.2425 1 2 cbr 210 ------- 0 1.0 7.0 38 42
r 0.24264 2 3 cbr 210 ------- 0 1.0 7.0 32 36
+ 0.24264 3 5 cbr 210 ------- 0 1.0 7.0 32 36
- 0.24264 3 5 cbr 210 ------- 0 1.0 7.0 32 36
r 0.24293 1 2 cbr 210 ------- 0 1.0 7.0 35 39
+ 0.24293 2 3 cbr 210 ------- 0 1.0 7.0 35 39
- 0.24293 2 3 cbr 210 ------- 0 1.0 7.0 35 39
r 0.24307 3 5 cbr 210 ------- 0 1.0 7.0 29 33
+ 0.24307 5 7 cbr 210 ------- 0 1.0 7.0 29 33
- 0.24307 5 7 cbr 210 ------- 0 1.0 7.0 29 33
+ 0.24625 1 2 cbr 210 ------- 0 1.0 7.0 39 43
- 0.24625 1 2 cbr 210 ------- 0 1.0 7.0 39 43
r 0.24639 2 3 cbr 210 ------- 0 1.0 7.0 33 37
+ 0.24639 3 5 cbr 210 ------- 0 1.0 7.0 33 37
- 0.24639 3 5 cbr 210 ------- 0 1.0 7.0 33 37
r 0.24668 1 2 cbr 210 ------- 0 1.0 7.0 36 40
+ 0.24668 2 3 cbr 210 ------- 0 1.0 7.0 36 40
- 0.24668 2 3 cbr 210 ------- 0 1.0 7.0 36 40
r 0.24682 3 5 cbr 210 ------- 0 1.0 7.0 30 34
+ 0.24682 5 7 cbr 210 ------- 0 1.0 7.0 30 34
- 0.24682 5 7 cbr 210 ------- 0 1.0 7.0 30 34
r 0.248 5 7 cbr 210 ------- 0 1.0 7.0 26 30
r 0.24968 5 7 cbr 210 ------- 0 1.0 7.0 27 31
+ 0.25 1 2 cbr 210 ------- 0 1.0 7.0 40 44
- 0.25 1 2 cbr 210 ------- 0 1.0 7.0 40 44
r 0.25014 2 3 cbr 210 ------- 0 1.0 7.0 34 38
+ 0.25014 3 5 cbr 210 ------- 0 1.0 7.0 34 38
- 0.25014 3 5 cbr 210 ------- 0 1.0 7.0 34 38
r 0.25043 1 2 cbr 210 ------- 0 1.0 7.0 37 41
+ 0.25043 2 3 cbr 210 ------- 0 1.0 7.0 37 41
- 0.25043 2 3 cbr 210 ------- 0 1.0 7.0 37 41
r 0.25057 3 5 cbr 210 ------- 0 1.0 7.0 31 35
+ 0.25057 5 7 cbr 210 ------- 0 1.0 7.0 31 35
- 0.25057 5 7 cbr 210 ------- 0 1.0 7.0 31 35
r 0.25136 5 7 cbr 210 ------- 0 1.0 7.0 28 32
r 0.252 4 6 tcp 1040 ------- 0 0.0 6.0 1 24
+ 0.252 6 4 ack 40 ------- 0 6.0 0.0 1 45
- 0.252 6 4 ack 40 ------- 0 6.0 0.0 1 45
+ 0.25375 1 2 cbr 210 ------- 0 1.0 7.0 41 46
- 0.25375 1 2 cbr 210 ------- 0 1.0 7.0 41 46
r 0.25389 2 3 cbr 210 ------- 0 1.0 7.0 35 39
+ 0.25389 3 5 cbr 210 ------- 0 1.0 7.0 35 39
- 0.25389 3 5 cbr 210 ------- 0 1.0 7.0 35 39
r 0.25418 1 2 cbr 210 ------- 0 1.0 7.0 38 42
+ 0.25418 2 3 cbr 210 ------- 0 1.0 7.0 38 42
- 0.25418 2 3 cbr 210 ------- 0 1.0 7.0 38 42
r 0.25432 3 5 cbr 210 ------- 0 1.0 7.0 32 36
+ 0.25432 5 7 cbr 210 ------- 0 1.0 7.0 32 36
- 0.25432 5 7 cbr 210 ------- 0 1.0 7.0 32 36
r 0.25475 5 7 cbr 210 ------- 0 1.0 7.0 29 33
+ 0.2575 1 2 cbr 210 ------- 0 1.0 7.0 42 47
- 0.2575 1 2 cbr 210 ------- 0 1.0 7.0 42 47
r 0.25764 2 3 cbr 210 ------- 0 1.0 7.0 36 40
+ 0.25764 3 5 cbr 210 ------- 0 1.0 7.0 36 40
- 0.25764 3 5 cbr 210 ------- 0 1.0 7.0 36 40
r 0.25793 1 2 cbr 210 ------- 0 1.0 7.0 39 43
+ 0.25793 2 3 cbr 210 ------- 0 1.0 7.0 39 43
- 0.25793 2 3 cbr 210 ------- 0 1.0 7.0 39 43
r 0.25807 3 5 cbr 210 ------- 0 1.0 7.0 33 37
+ 0.25807 5 7 cbr 210 ------- 0 1.0 7.0 33 37
- 0.25807 5 7 cbr 210 ------- 0 1.0 7.0 33 37
r 0.2585 5 7 cbr 210 ------- 0 1.0 7.0 30 34
r 0.26032 4 6 tcp 1040 ------- 0 0.0 6.0 2 25
+ 0.26032 6 4 ack 40 ------- 0 6.0 0.0 2 48
- 0.26032 6 4 ack 40 ------- 0 6.0 0.0 2 48
+ 0.26125 1 2 cbr 210 ------- 0 1.0 7.0 43 49
- 0.26125 1 2 cbr 210 ------- 0 1.0 7.0 43 49
r 0.26139 2 3 cbr 210 ------- 0 1.0 7.0 37 41
+ 0.26139 3 5 cbr 210 ------- 0 1.0 7.0 37 41
- 0.26139 3 5 cbr 210 ------- 0 1.0 7.0 37 41
r 0.26168 1 2 cbr 210 ------- 0 1.0 7.0 40 44
+ 0.26168 2 3 cbr 210 ------- 0 1.0 7.0 40 44
- 0.26168 2 3 cbr 210 ------- 0 1.0 7.0 40 44
r 0.26182 3 5 cbr 210 ------- 0 1.0 7.0 34 38
+ 0.26182 5 7 cbr 210 ------- 0 1.0 7.0 34 38
- 0.26182 5 7 cbr 210 ------- 0 1.0 7.0 34 38
r 0.26225 5 7 cbr 210 ------- 0 1.0 7.0 31 35
r 0.26232 6 4 ack 40 ------- 0 6.0 0.0 1 45
+ 0.26232 4 3 ack 40 ------- 0 6.0 0.0 1 45
- 0.26232 4 3 ack 40 ------- 0 6.0 0.0 1 45
+ 0.265 1 2 cbr 210 ------- 0 1.0 7.0 44 50
- 0.265 1 2 cbr 210 ------- 0 1.0 7.0 44 50
r 0.26514 2 3 cbr 210 ------- 0 1.0 7.0 38 42
+ 0.26514 3 5 cbr 210 ------- 0 1.0 7.0 38 42
- 0.26514 3 5 cbr 210 ------- 0 1.0 7.0 38 42
r 0.26543 1 2 cbr 210 ------- 0 1.0 7.0 41 46
+ 0.26543 2 3 cbr 210 ------- 0 1.0 7.0 41 46
- 0.26543 2 3 cbr 210 ------- 0 1.0 7.0 41 46
r 0.26557 3 5 cbr 210 ------- 0 1.0 7.0 35 39
+ 0.26557 5 7 cbr 210 ------- 0 1.0 7.0 35 39
- 0.26557 5 7 cbr 210 ------- 0 1.0 7.0 35 39
r 0.266 5 7 cbr 210 ------- 0 1.0 7.0 32 36
+ 0.26875 1 2 cbr 210 ------- 0 1.0 7.0 45 51
- 0.26875 1 2 cbr 210 ------- 0 1.0 7.0 45 51
r 0.26889 2 3 cbr 210 ------- 0 1.0 7.0 39 43
+ 0.26889 3 5 cbr 210 ------- 0 1.0 7.0 39 43
- 0.26889 3 5 cbr 210 ------- 0 1.0 7.0 39 43
r 0.26918 1 2 cbr 210 ------- 0 1.0 7.0 42 47
+ 0.26918 2 3 cbr 210 ------- 0 1.0 7.0 42 47
- 0.26918 2 3 cbr 210 ------- 0 1.0 7.0 42 47
r 0.26932 3 5 cbr 210 ------- 0 1.0 7.0 36 40
+ 0.26932 5 7 cbr 210 ------- 0 1.0 7.0 36 40
- 0.26932 5 7 cbr 210 ------- 0 1.0 7.0 36 40
r 0.26975 5 7 cbr 210 ------- 0 1.0 7.0 33 37
r 0.27064 6 4 ack 40 ------- 0 6.0 0.0 2 48
+ 0.27064 4 3 ack 40 ------- 0 6.0 0.0 2 48
- 0.27064 4 3 ack 40 ------- 0 6.0 0.0 2 48
+ 0.2725 1 2 cbr 210 ------- 0 1.0 7.0 46 52
- 0.2725 1 2 cbr 210 ------- 0 1.0 7.0 46 52
r 0.27264 4 3 ack 40 ------- 0 6.0 0.0 1 45
+ 0.27264 3 2 ack 40 ------- 0 6.0 0.0 1 45
- 0.27264 3 2 ack 40 ------- 0 6.0 0.0 1 45
r 0.27264 2 3 cbr 210 ------- 0 1.0 7.0 40 44
+ 0.27264 3 5 cbr 210 ------- 0 1.0 7.0 40 44
- 0.27264 3 5 cbr 210 ------- 0 1.0 7.0 40 44
r 0.27293 1 2 cbr 210 ------- 0 1.0 7.0 43 49
+ 0.27293 2 3 cbr 210 ------- 0 1.0 7.0 43 49
- 0.27293 2 3 cbr 210 ------- 0 1.0 7.0 43 49
r 0.27307 3 5 cbr 210 ------- 0 1.0 7.0 37 41
+ 0.27307 5 7 cbr 210 ------- 0 1.0 7.0 37 41
- 0.27307 5 7 cbr 210 ------- 0 1.0 7.0 37 41
r 0.2735 5 7 cbr 210 ------- 0 1.0 7.0 34 38
+ 0.27625 1 2 cbr 210 ------- 0 1.0 7.0 47 53
- 0.27625 1 2 cbr 210 ------- 0 1.0 7.0 47 53
r 0.27639 2 3 cbr 210 ------- 0 1.0 7.0 41 46
+ 0.27639 3 5 cbr 210 ------- 0 1.0 7.0 41 46
- 0.27639 3 5 cbr 210 ------- 0 1.0 7.0 41 46
r 0.27668 1 2 cbr 210 ------- 0 1.0 7.0 44 50
+ 0.27668 2 3 cbr 210 ------- 0 1.0 7.0 44 50
- 0.27668 2 3 cbr 210 ------- 0 1.0 7.0 44 50
r 0.27682 3 5 cbr 210 ------- 0 1.0 7.0 38 42
+ 0.27682 5 7 cbr 210 ------- 0 1.0 7.0 38 42
- 0.27682 5 7 cbr 210 ------- 0 1.0 7.0 38 42
r 0.27725 5 7 cbr 210 ------- 0 1.0 7.0 35 39
+ 0.28 1 2 cbr 210 ------- 0 1.0 7.0 48 54
- 0.28 1 2 cbr 210 ------- 0 1.0 7.0 48 54
r 0.28014 2 3 cbr 210 ------- 0 1.0 7.0 42 47
+ 0.28014 3 5 cbr 210 ------- 0 1.0 7.0 42 47
- 0.28014 3 5 cbr 210 ------- 0 1.0 7.0 42 47
r 0.28043 1 2 cbr 210 ------- 0 1.0 7.0 45 51
+ 0.28043 2 3 cbr 210 ------- 0 1.0 7.0 45 51
- 0.28043 2 3 cbr 210 ------- 0 1.0 7.0 45 51
r 0.28057 3 5 cbr 210 ------- 0 1.0 7.0 39 43
+ 0.28057 5 7 cbr 210 ------- 0 1.0 7.0 39 43
- 0.28057 5 7 cbr 210 ------- 0 1.0 7.0 39 43
r 0.28096 4 3 ack 40 ------- 0 6.0 0.0 2 48
+ 0.28096 3 2 ack 40 ------- 0 6.0 0.0 2 48
- 0.28096 3 2 ack 40 ------- 0 6.0 0.0 2 48
r 0.281 5 7 cbr 210 ------- 0 1.0 7.0 36 40
r 0.282823 3 2 ack 40 ------- 0 6.0 0.0 1 45
+ 0.282823 2 0 ack 40 ------- 0 6.0 0.0 1 45
- 0.282823 2 0 ack 40 ------- 0 6.0 0.0 1 45
+ 0.28375 1 2 cbr 210 ------- 0 1.0 7.0 49 55
- 0.28375 1 2 cbr 210 ------- 0 1.0 7.0 49 55
r 0.28389 2 3 cbr 210 ------- 0 1.0 7.0 43 49
+ 0.28389 3 5 cbr 210 ------- 0 1.0 7.0 43 49
- 0.28389 3 5 cbr 210 ------- 0 1.0 7.0 43 49
r 0.28418 1 2 cbr 210 ------- 0 1.0 7.0 46 52
+ 0.28418 2 3 cbr 210 ------- 0 1.0 7.0 46 52
- 0.28418 2 3 cbr 210 ------- 0 1.0 7.0 46 52
r 0.28432 3 5 cbr 210 ------- 0 1.0 7.0 40 44
+ 0.28432 5 7 cbr 210 ------- 0 1.0 7.0 40 44
- 0.28432 5 7 cbr 210 ------- 0 1.0 7.0 40 44
r 0.28475 5 7 cbr 210 ------- 0 1.0 7.0 37 41
+ 0.2875 1 2 cbr 210 ------- 0 1.0 7.0 50 56
- 0.2875 1 2 cbr 210 ------- 0 1.0 7.0 50 56
r 0.28764 2 3 cbr 210 ------- 0 1.0 7.0 44 50
+ 0.28764 3 5 cbr 210 ------- 0 1.0 7.0 44 50
- 0.28764 3 5 cbr 210 ------- 0 1.0 7.0 44 50
r 0.28793 1 2 cbr 210 ------- 0 1.0 7.0 47 53
+ 0.28793 2 3 cbr 210 ------- 0 1.0 7.0 47 53
- 0.28793 2 3 cbr 210 ------- 0 1.0 7.0 47 53
r 0.28807 3 5 cbr 210 ------- 0 1.0 7.0 41 46
+ 0.28807 5 7 cbr 210 ------- 0 1.0 7.0 41 46
- 0.28807 5 7 cbr 210 ------- 0 1.0 7.0 41 46
r 0.2885 5 7 cbr 210 ------- 0 1.0 7.0 38 42
r 0.291143 3 2 ack 40 ------- 0 6.0 0.0 2 48
+ 0.291143 2 0 ack 40 ------- 0 6.0 0.0 2 48
- 0.291143 2 0 ack 40 ------- 0 6.0 0.0 2 48
+ 0.29125 1 2 cbr 210 ------- 0 1.0 7.0 51 57
- 0.29125 1 2 cbr 210 ------- 0 1.0 7.0 51 57
r 0.29139 2 3 cbr 210 ------- 0 1.0 7.0 45 51
+ 0.29139 3 5 cbr 210 ------- 0 1.0 7.0 45 51
- 0.29139 3 5 cbr 210 ------- 0 1.0 7.0 45 51
r 0.29168 1 2 cbr 210 ------- 0 1.0 7.0 48 54
+ 0.29168 2 3 cbr 210 ------- 0 1.0 7.0 48 54
- 0.29168 2 3 cbr 210 ------- 0 1.0 7.0 48 54
r 0.29182 3 5 cbr 210 ------- 0 1.0 7.0 42 47
+ 0.29182 5 7 cbr 210 ------- 0 1.0 7.0 42 47
- 0.29182 5 7 cbr 210 ------- 0 1.0 7.0 42 47
r 0.29225 5 7 cbr 210 ------- 0 1.0 7.0 39 43
r 0.293143 2 0 ack 40 ------- 0 6.0 0.0 1 45
+ 0.293143 0 2 tcp 1040 ------- 0 0.0 6.0 3 58
- 0.293143 0 2 tcp 1040 ------- 0 0.0 6.0 3 58
+ 0.293143 0 2 tcp 1040 ------- 0 0.0 6.0 4 59
+ 0.295 1 2 cbr 210 ------- 0 1.0 7.0 52 60
- 0.295 1 2 cbr 210 ------- 0 1.0 7.0 52 60
r 0.29514 2 3 cbr 210 ------- 0 1.0 7.0 46 52
+ 0.29514 3 5 cbr 210 ------- 0 1.0 7.0 46 52
- 0.29514 3 5 cbr 210 ------- 0 1.0 7.0 46 52
r 0.29543 1 2 cbr 210 ------- 0 1.0 7.0 49 55
+ 0.29543 2 3 cbr 210 ------- 0 1.0 7.0 49 55
- 0.29543 2 3 cbr 210 ------- 0 1.0 7.0 49 55
r 0.29557 3 5 cbr 210 ------- 0 1.0 7.0 43 49
+ 0.29557 5 7 cbr 210 ------- 0 1.0 7.0 43 49
- 0.29557 5 7 cbr 210 ------- 0 1.0 7.0 43 49
r 0.296 5 7 cbr 210 ------- 0 1.0 7.0 40 44
+ 0.29875 1 2 cbr 210 ------- 0 1.0 7.0 53 61
- 0.29875 1 2 cbr 210 ------- 0 1.0 7.0 53 61
r 0.29889 2 3 cbr 210 ------- 0 1.0 7.0 47 53
+ 0.29889 3 5 cbr 210 ------- 0 1.0 7.0 47 53
- 0.29889 3 5 cbr 210 ------- 0 1.0 7.0 47 53
r 0.29918 1 2 cbr 210 ------- 0 1.0 7.0 50 56
+ 0.29918 2 3 cbr 210 ------- 0 1.0 7.0 50 56
- 0.29918 2 3 cbr 210 ------- 0 1.0 7.0 50 56
r 0.29932 3 5 cbr 210 ------- 0 1.0 7.0 44 50
+ 0.29932 5 7 cbr 210 ------- 0 1.0 7.0 44 50
- 0.29932 5 7 cbr 210 ------- 0 1.0 7.0 44 50
r 0.29975 5 7 cbr 210 ------- 0 1.0 7.0 41 46
r 0.301463 2 0 ack 40 ------- 0 6.0 0.0 2 48
+ 0.301463 0 2 tcp 1040 ------- 0 0.0 6.0 5 62
+ 0.301463 0 2 tcp 1040 ------- 0 0.0 6.0 6 63
- 0.301463 0 2 tcp 1040 ------- 0 0.0 6.0 4 59
+ 0.3025 1 2 cbr 210 ------- 0 1.0 7.0 54 64
- 0.3025 1 2 cbr 210 ------- 0 1.0 7.0 54 64