+ 0.1 0 2 tcp 40 ------- 0 0.0 6.0 0 0
- 0.1 0 2 tcp 40 ------- 0 0.0 6.0 0 0
+ 0.1 1 2 cbr 210 ------- 0 1.0 7.0 0 1
- 0.1 1 2 cbr 210 ------- 0 1.0 7.0 0 1
+ 0.10375 1 2 cbr 210 ------- 0 1.0 7.0 1 2
- 0.10375 1 2 cbr 210 ------- 0 1.0 7.0 1 2
+ 0.1075 1 2 cbr 210 ------- 0 1.0 7.0 2 3
- 0.1075 1 2 cbr 210 ------- 0 1.0 7.0 2 3
r 0.11032 0 2 tcp 40 ------- 0 0.0 6.0 0 0
+ 0.11032 2 3 tcp 40 ------- 0 0.0 6.0 0 0
- 0.11032 2 3 tcp 40 ------- 0 0.0 6.0 0 0
+ 0.11125 1 2 cbr 210 ------- 0 1.0 7.0 3 4
- 0.11125 1 2 cbr 210 ------- 0 1.0 7.0 3 4
r 0.11168 1 2 cbr 210 ------- 0 1.0 7.0 0 1
+ 0.11168 2 3 cbr 210 ------- 0 1.0 7.0 0 1
- 0.11168 2 3 cbr 210 ------- 0 1.0 7.0 0 1
+ 0.115 1 2 cbr 210 ------- 0 1.0 7.0 4 5
- 0.115 1 2 cbr 210 ------- 0 1.0 7.0 4 5
r 0.11543 1 2 cbr 210 ------- 0 1.0 7.0 1 2
+ 0.11543 2 3 cbr 210 ------- 0 1.0 7.0 1 2
- 0.11543 2 3 cbr 210 ------- 0 1.0 7.0 1 2
+ 0.11875 1 2 cbr 210 ------- 0 1.0 7.0 5 6
- 0.11875 1 2 cbr 210 ------- 0 1.0 7.0 5 6
r 0.11918 1 2 cbr 210 ------- 0 1.0 7.0 2 3
+ 0.11918 2 3 cbr 210 ------- 0 1.0 7.0 2 3
- 0.11918 2 3 cbr 210 ------- 0 1.0 7.0 2 3
r 0.120576 2 3 tcp 40 ------- 0 0.0 6.0 0 0
+ 0.120576 3 4 tcp 40 ------- 0 0.0 6.0 0 0
- 0.120576 3 4 tcp 40 ------- 0 0.0 6.0 0 0
+ 0.1225 1 2 cbr 210 ------- 0 1.0 7.0 6 7
- 0.1225 1 2 cbr 210 ------- 0 1.0 7.0 6 7
r 0.12293 1 2 cbr 210 ------- 0 1.0 7.0 3 4
+ 0.12293 2 3 cbr 210 ------- 0 1.0 7.0 3 4
- 0.12293 2 3 cbr 210 ------- 0 1.0 7.0 3 4
r 0.123024 2 3 cbr 210 ------- 0 1.0 7.0 0 1
+ 0.123024 3 5 cbr 210 ------- 0 1.0 7.0 0 1
- 0.123024 3 5 cbr 210 ------- 0 1.0 7.0 0 1
+ 0.12625 1 2 cbr 210 ------- 0 1.0 7.0 7 8
- 0.12625 1 2 cbr 210 ------- 0 1.0 7.0 7 8
r 0.12668 1 2 cbr 210 ------- 0 1.0 7.0 4 5
+ 0.12668 2 3 cbr 210 ------- 0 1.0 7.0 4 5
- 0.12668 2 3 cbr 210 ------- 0 1.0 7.0 4 5
r 0.126774 2 3 cbr 210 ------- 0 1.0 7.0 1 2
+ 0.126774 3 5 cbr 210 ------- 0 1.0 7.0 1 2
- 0.126774 3 5 cbr 210 ------- 0 1.0 7.0 1 2
+ 0.13 1 2 cbr 210 ------- 0 1.0 7.0 8 9
- 0.13 1 2 cbr 210 ------- 0 1.0 7.0 8 9
r 0.13043 1 2 cbr 210 ------- 0 1.0 7.0 5 6
+ 0.13043 2 3 cbr 210 ------- 0 1.0 7.0 5 6
- 0.13043 2 3 cbr 210 ------- 0 1.0 7.0 5 6
r 0.130524 2 3 cbr 210 ------- 0 1.0 7.0 2 3
+ 0.130524 3 5 cbr 210 ------- 0 1.0 7.0 2 3
- 0.130524 3 5 cbr 210 ------- 0 1.0 7.0 2 3
r 0.130896 3 4 tcp 40 ------- 0 0.0 6.0 0 0
+ 0.130896 4 6 tcp 40 ------- 0 0.0 6.0 0 0
- 0.130896 4 6 tcp 40 ------- 0 0.0 6.0 0 0
+ 0.13375 1 2 cbr 210 ------- 0 1.0 7.0 9 10
- 0.13375 1 2 cbr 210 ------- 0 1.0 7.0 9 10
r 0.13418 1 2 cbr 210 ------- 0 1.0 7.0 6 7
+ 0.13418 2 3 cbr 210 ------- 0 1.0 7.0 6 7
- 0.13418 2 3 cbr 210 ------- 0 1.0 7.0 6 7
r 0.134274 2 3 cbr 210 ------- 0 1.0 7.0 3 4
+ 0.134274 3 5 cbr 210 ------- 0 1.0 7.0 3 4
- 0.134274 3 5 cbr 210 ------- 0 1.0 7.0 3 4
r 0.134704 3 5 cbr 210 ------- 0 1.0 7.0 0 1
+ 0.134704 5 7 cbr 210 ------- 0 1.0 7.0 0 1
- 0.134704 5 7 cbr 210 ------- 0 1.0 7.0 0 1
+ 0.1375 1 2 cbr 210 ------- 0 1.0 7.0 10 11
- 0.1375 1 2 cbr 210 ------- 0 1.0 7.0 10 11
r 0.13793 1 2 cbr 210 ------- 0 1.0 7.0 7 8
+ 0.13793 2 3 cbr 210 ------- 0 1.0 7.0 7 8
- 0.13793 2 3 cbr 210 ------- 0 1.0 7.0 7 8
r 0.138024 2 3 cbr 210 ------- 0 1.0 7.0 4 5
+ 0.138024 3 5 cbr 210 ------- 0 1.0 7.0 4 5
- 0.138024 3 5 cbr 210 ------- 0 1.0 7.0 4 5
r 0.138454 3 5 cbr 210 ------- 0 1.0 7.0 1 2
+ 0.138454 5 7 cbr 210 ------- 0 1.0 7.0 1 2
- 0.138454 5 7 cbr 210 ------- 0 1.0 7.0 1 2
r 0.141216 4 6 tcp 40 ------- 0 0.0 6.0 0 0
+ 0.141216 6 4 ack 40 ------- 0 6.0 0.0 0 12
- 0.141216 6 4 ack 40 ------- 0 6.0 0.0 0 12
+ 0.14125 1 2 cbr 210 ------- 0 1.0 7.0 11 13
- 0.14125 1 2 cbr 210 ------- 0 1.0 7.0 11 13
r 0.14168 1 2 cbr 210 ------- 0 1.0 7.0 8 9
+ 0.14168 2 3 cbr 210 ------- 0 1.0 7.0 8 9
- 0.14168 2 3 cbr 210 ------- 0 1.0 7.0 8 9
r 0.141774 2 3 cbr 210 ------- 0 1.0 7.0 5 6
+ 0.141774 3 5 cbr 210 ------- 0 1.0 7.0 5 6
- 0.141774 3 5 cbr 210 ------- 0 1.0 7.0 5 6
r 0.142204 3 5 cbr 210 ------- 0 1.0 7.0 2 3
+ 0.142204 5 7 cbr 210 ------- 0 1.0 7.0 2 3
- 0.142204 5 7 cbr 210 ------- 0 1.0 7.0 2 3
+ 0.145 1 2 cbr 210 ------- 0 1.0 7.0 12 14
- 0.145 1 2 cbr 210 ------- 0 1.0 7.0 12 14
r 0.14543 1 2 cbr 210 ------- 0 1.0 7.0 9 10
+ 0.14543 2 3 cbr 210 ------- 0 1.0 7.0 9 10
- 0.14543 2 3 cbr 210 ------- 0 1.0 7.0 9 10
r 0.145524 2 3 cbr 210 ------- 0 1.0 7.0 6 7
+ 0.145524 3 5 cbr 210 ------- 0 1.0 7.0 6 7
- 0.145524 3 5 cbr 210 ------- 0 1.0 7.0 6 7
r 0.145954 3 5 cbr 210 ------- 0 1.0 7.0 3 4
+ 0.145954 5 7 cbr 210 ------- 0 1.0 7.0 3 4
- 0.145954 5 7 cbr 210 ------- 0 1.0 7.0 3 4
r 0.146384 5 7 cbr 210 ------- 0 1.0 7.0 0 1
+ 0.14875 1 2 cbr 210 ------- 0 1.0 7.0 13 15
- 0.14875 1 2 cbr 210 ------- 0 1.0 7.0 13 15
r 0.14918 1 2 cbr 210 ------- 0 1.0 7.0 10 11
+ 0.14918 2 3 cbr 210 ------- 0 1.0 7.0 10 11
- 0.14918 2 3 cbr 210 ------- 0 1.0 7.0 10 11
r 0.149274 2 3 cbr 210 ------- 0 1.0 7.0 7 8
+ 0.149274 3 5 cbr 210 ------- 0 1.0 7.0 7 8
- 0.149274 3 5 cbr 210 ------- 0 1.0 7.0 7 8
r 0.149704 3 5 cbr 210 ------- 0 1.0 7.0 4 5
+ 0.149704 5 7 cbr 210 ------- 0 1.0 7.0 4 5
- 0.149704 5 7 cbr 210 ------- 0 1.0 7.0 4 5
r 0.150134 5 7 cbr 210 ------- 0 1.0 7.0 1 2
r 0.151536 6 4 ack 40 ------- 0 6.0 0.0 0 12
+ 0.151536 4 3 ack 40 ------- 0 6.0 0.0 0 12
- 0.151536 4 3 ack 40 ------- 0 6.0 0.0 0 12
+ 0.1525 1 2 cbr 210 ------- 0 1.0 7.0 14 16
- 0.1525 1 2 cbr 210 ------- 0 1.0 7.0 14 16
r 0.15293 1 2 cbr 210 ------- 0 1.0 7.0 11 13
+ 0.15293 2 3 cbr 210 ------- 0 1.0 7.0 11 13
- 0.15293 2 3 cbr 210 ------- 0 1.0 7.0 11 13
r 0.153024 2 3 cbr 210 ------- 0 1.0 7.0 8 9
+ 0.153024 3 5 cbr 210 ------- 0 1.0 7.0 8 9
- 0.153024 3 5 cbr 210 ------- 0 1.0 7.0 8 9
r 0.153454 3 5 cbr 210 ------- 0 1.0 7.0 5 6
+ 0.153454 5 7 cbr 210 ------- 0 1.0 7.0 5 6
- 0.153454 5 7 cbr 210 ------- 0 1.0 7.0 5 6
r 0.153884 5 7 cbr 210 ------- 0 1.0 7.0 2 3
+ 0.15625 1 2 cbr 210 ------- 0 1.0 7.0 15 17
- 0.15625 1 2 cbr 210 ------- 0 1.0 7.0 15 17
r 0.15668 1 2 cbr 210 ------- 0 1.0 7.0 12 14
+ 0.15668 2 3 cbr 210 ------- 0 1.0 7.0 12 14
- 0.15668 2 3 cbr 210 ------- 0 1.0 7.0 12 14
r 0.156774 2 3 cbr 210 ------- 0 1.0 7.0 9 10
+ 0.156774 3 5 cbr 210 ------- 0 1.0 7.0 9 10
- 0.156774 3 5 cbr 210 ------- 0 1.0 7.0 9 10
r 0.157204 3 5 cbr 210 ------- 0 1.0 7.0 6 7
+ 0.157204 5 7 cbr 210 ------- 0 1.0 7.0 6 7
- 0.157204 5 7 cbr 210 ------- 0 1.0 7.0 6 7
r 0.157634 5 7 cbr 210 ------- 0 1.0 7.0 3 4
+ 0.16 1 2 cbr 210 ------- 0 1.0 7.0 16 18
- 0.16 1 2 cbr 210 ------- 0 1.0 7.0 16 18
r 0.16043 1 2 cbr 210 ------- 0 1.0 7.0 13 15
+ 0.16043 2 3 cbr 210 ------- 0 1.0 7.0 13 15
- 0.16043 2 3 cbr 210 ------- 0 1.0 7.0 13 15
r 0.160524 2 3 cbr 210 ------- 0 1.0 7.0 10 11
+ 0.160524 3 5 cbr 210 ------- 0 1.0 7.0 10 11
- 0.160524 3 5 cbr 210 ------- 0 1.0 7.0 10 11
r 0.160954 3 5 cbr 210 ------- 0 1.0 7.0 7 8
+ 0.160954 5 7 cbr 210 ------- 0 1.0 7.0 7 8
- 0.160954 5 7 cbr 210 ------- 0 1.0 7.0 7 8
r 0.161384 5 7 cbr 210 ------- 0 1.0 7.0 4 5
r 0.161856 4 3 ack 40 ------- 0 6.0 0.0 0 12
+ 0.161856 3 2 ack 40 ------- 0 6.0 0.0 0 12
- 0.161856 3 2 ack 40 ------- 0 6.0 0.0 0 12
+ 0.16375 1 2 cbr 210 ------- 0 1.0 7.0 17 19
- 0.16375 1 2 cbr 210 ------- 0 1.0 7.0 17 19
r 0.16418 1 2 cbr 210 ------- 0 1.0 7.0 14 16
+ 0.16418 2 3 cbr 210 ------- 0 1.0 7.0 14 16
- 0.16418 2 3 cbr 210 ------- 0 1.0 7.0 14 16
r 0.164274 2 3 cbr 210 ------- 0 1.0 7.0 11 13
+ 0.164274 3 5 cbr 210 ------- 0 1.0 7.0 11 13
- 0.164274 3 5 cbr 210 ------- 0 1.0 7.0 11 13
r 0.164704 3 5 cbr 210 ------- 0 1.0 7.0 8 9
+ 0.164704 5 7 cbr 210 ------- 0 1.0 7.0 8 9
- 0.164704 5 7 cbr 210 ------- 0 1.0 7.0 8 9
r 0.165134 5 7 cbr 210 ------- 0 1.0 7.0 5 6
+ 0.1675 1 2 cbr 210 ------- 0 1.0 7.0 18 20
- 0.1675 1 2 cbr 210 ------- 0 1.0 7.0 18 20
r 0.16793 1 2 cbr 210 ------- 0 1.0 7.0 15 17
+ 0.16793 2 3 cbr 210 ------- 0 1.0 7.0 15 17
- 0.16793 2 3 cbr 210 ------- 0 1.0 7.0 15 17
r 0.168024 2 3 cbr 210 ------- 0 1.0 7.0 12 14
+ 0.168024 3 5 cbr 210 ------- 0 1.0 7.0 12 14
- 0.168024 3 5 cbr 210 ------- 0 1.0 7.0 12 14
r 0.168454 3 5 cbr 210 ------- 0 1.0 7.0 9 10
+ 0.168454 5 7 cbr 210 ------- 0 1.0 7.0 9 10
- 0.168454 5 7 cbr 210 ------- 0 1.0 7.0 9 10
r 0.168884 5 7 cbr 210 ------- 0 1.0 7.0 6 7
+ 0.17125 1 2 cbr 210 ------- 0 1.0 7.0 19 21
- 0.17125 1 2 cbr 210 ------- 0 1.0 7.0 19 21
r 0.17168 1 2 cbr 210 ------- 0 1.0 7.0 16 18
+ 0.17168 2 3 cbr 210 ------- 0 1.0 7.0 16 18
- 0.17168 2 3 cbr 210 ------- 0 1.0 7.0 16 18
r 0.171774 2 3 cbr 210 ------- 0 1.0 7.0 13 15
+ 0.171774 3 5 cbr 210 ------- 0 1.0 7.0 13 15
- 0.171774 3 5 cbr 210 ------- 0 1.0 7.0 13 15
r 0.172112 3 2 ack 40 ------- 0 6.0 0.0 0 12
+ 0.172112 2 0 ack 40 ------- 0 6.0 0.0 0 12
- 0.172112 2 0 ack 40 ------- 0 6.0 0.0 0 12
r 0.172204 3 5 cbr 210 ------- 0 1.0 7.0 10 11
+ 0.172204 5 7 cbr 210 ------- 0 1.0 7.0 10 11
- 0.172204 5 7 cbr 210 ------- 0 1.0 7.0 10 11
r 0.172634 5 7 cbr 210 ------- 0 1.0 7.0 7 8
+ 0.175 1 2 cbr 210 ------- 0 1.0 7.0 20 22
- 0.175 1 2 cbr 210 ------- 0 1.0 7.0 20 22
r 0.17543 1 2 cbr 210 ------- 0 1.0 7.0 17 19
+ 0.17543 2 3 cbr 210 ------- 0 1.0 7.0 17 19
- 0.17543 2 3 cbr 210 ------- 0 1.0 7.0 17 19
r 0.175524 2 3 cbr 210 ------- 0 1.0 7.0 14 16
+ 0.175524 3 5 cbr 210 ------- 0 1.0 7.0 14 16
- 0.175524 3 5 cbr 210 ------- 0 1.0 7.0 14 16
r 0.175954 3 5 cbr 210 ------- 0 1.0 7.0 11 13
+ 0.175954 5 7 cbr 210 ------- 0 1.0 7.0 11 13
- 0.175954 5 7 cbr 210 ------- 0 1.0 7.0 11 13
r 0.176384 5 7 cbr 210 ------- 0 1.0 7.0 8 9
+ 0.17875 1 2 cbr 210 ------- 0 1.0 7.0 21 23
- 0.17875 1 2 cbr 210 ------- 0 1.0 7.0 21 23
r 0.17918 1 2 cbr 210 ------- 0 1.0 7.0 18 20
+ 0.17918 2 3 cbr 210 ------- 0 1.0 7.0 18 20
- 0.17918 2 3 cbr 210 ------- 0 1.0 7.0 18 20
r 0.179274 2 3 cbr 210 ------- 0 1.0 7.0 15 17
+ 0.179274 3 5 cbr 210 ------- 0 1.0 7.0 15 17
- 0.179274 3 5 cbr 210 ------- 0 1.0 7.0 15 17
r 0.179704 3 5 cbr 210 ------- 0 1.0 7.0 12 14
+ 0.179704 5 7 cbr 210 ------- 0 1.0 7.0 12 14
- 0.179704 5 7 cbr 210 ------- 0 1.0 7.0 12 14
r 0.180134 5 7 cbr 210 ------- 0 1.0 7.0 9 10
r 0.182432 2 0 ack 40 ------- 0 6.0 0.0 0 12
+ 0.182432 0 2 tcp 1040 ------- 0 0.0 6.0 1 24
- 0.182432 0 2 tcp 1040 ------- 0 0.0 6.0 1 24
+ 0.182432 0 2 tcp 1040 ------- 0 0.0 6.0 2 25
+ 0.1825 1 2 cbr 210 ------- 0 1.0 7.0 22 26
- 0.1825 1 2 cbr 210 ------- 0 1.0 7.0 22 26
r 0.18293 1 2 cbr 210 ------- 0 1.0 7.0 19 21
+ 0.18293 2 3 cbr 210 ------- 0 1.0 7.0 19 21
- 0.18293 2 3 cbr 210 ------- 0 1.0 7.0 19 21
r 0.183024 2 3 cbr 210 ------- 0 1.0 7.0 16 18
+ 0.183024 3 5 cbr 210 ------- 0 1.0 7.0 16 18
- 0.183024 3 5 cbr 210 ------- 0 1.0 7.0 16 18
r 0.183454 3 5 cbr 210 ------- 0 1.0 7.0 13 15
+ 0.183454 5 7 cbr 210 ------- 0 1.0 7.0 13 15
- 0.183454 5 7 cbr 210 ------- 0 1.0 7.0 13 15
r 0.183884 5 7 cbr 210 ------- 0 1.0 7.0 10 11
+ 0.18625 1 2 cbr 210 ------- 0 1.0 7.0 23 27
- 0.18625 1 2 cbr 210 ------- 0 1.0 7.0 23 27
r 0.18668 1 2 cbr 210 ------- 0 1.0 7.0 20 22
+ 0.18668 2 3 cbr 210 ------- 0 1.0 7.0 20 22
- 0.18668 2 3 cbr 210 ------- 0 1.0 7.0 20 22
r 0.186774 2 3 cbr 210 ------- 0 1.0 7.0 17 19
+ 0.186774 3 5 cbr 210 ------- 0 1.0 7.0 17 19
- 0.186774 3 5 cbr 210 ------- 0 1.0 7.0 17 19
r 0.187204 3 5 cbr 210 ------- 0 1.0 7.0 14 16
+ 0.187204 5 7 cbr 210 ------- 0 1.0 7.0 14 16
- 0.187204 5 7 cbr 210 ------- 0 1.0 7.0 14 16
r 0.187634 5 7 cbr 210 ------- 0 1.0 7.0 11 13
+ 0.19 1 2 cbr 210 ------- 0 1.0 7.0 24 28
- 0.19 1 2 cbr 210 ------- 0 1.0 7.0 24 28
r 0.19043 1 2 cbr 210 ------- 0 1.0 7.0 21 23
+ 0.19043 2 3 cbr 210 ------- 0 1.0 7.0 21 23
- 0.19043 2 3 cbr 210 ------- 0 1.0 7.0 21 23
r 0.190524 2 3 cbr 210 ------- 0 1.0 7.0 18 20
+ 0.190524 3 5 cbr 210 ------- 0 1.0 7.0 18 20
- 0.190524 3 5 cbr 210 ------- 0 1.0 7.0 18 20
- 0.190752 0 2 tcp 1040 ------- 0 0.0 6.0 2 25
r 0.190954 3 5 cbr 210 ------- 0 1.0 7.0 15 17
+ 0.190954 5 7 cbr 210 ------- 0 1.0 7.0 15 17
- 0.190954 5 7 cbr 210 ------- 0 1.0 7.0 15 17
r 0.191384 5 7 cbr 210 ------- 0 1.0 7.0 12 14
+ 0.19375 1 2 cbr 210 ------- 0 1.0 7.0 25 29
- 0.19375 1 2 cbr 210 ------- 0 1.0 7.0 25 29
r 0.19418 1 2 cbr 210 ------- 0 1.0 7.0 22 26
+ 0.19418 2 3 cbr 210 ------- 0 1.0 7.0 22 26
- 0.19418 2 3 cbr 210 ------- 0 1.0 7.0 22 26
r 0.194274 2 3 cbr 210 ------- 0 1.0 7.0 19 21
+ 0.194274 3 5 cbr 210 ------- 0 1.0 7.0 19 21
- 0.194274 3 5 cbr 210 ------- 0 1.0 7.0 19 21
r 0.194704 3 5 cbr 210 ------- 0 1.0 7.0 16 18
+ 0.194704 5 7 cbr 210 ------- 0 1.0 7.0 16 18
- 0.194704 5 7 cbr 210 ------- 0 1.0 7.0 16 18
r 0.195134 5 7 cbr 210 ------- 0 1.0 7.0 13 15
+ 0.1975 1 2 cbr 210 ------- 0 1.0 7.0 26 30
- 0.1975 1 2 cbr 210 ------- 0 1.0 7.0 26 30
r 0.19793 1 2 cbr 210 ------- 0 1.0 7.0 23 27
+ 0.19793 2 3 cbr 210 ------- 0 1.0 7.0 23 27
- 0.19793 2 3 cbr 210 ------- 0 1.0 7.0 23 27
r 0.198024 2 3 cbr 210 ------- 0 1.0 7.0 20 22
+ 0.198024 3 5 cbr 210 ------- 0 1.0 7.0 20 22
- 0.198024 3 5 cbr 210 ------- 0 1.0 7.0 20 22
r 0.198454 3 5 cbr 210 ------- 0 1.0 7.0 17 19
+ 0.198454 5 7 cbr 210 ------- 0 1.0 7.0 17 19
- 0.198454 5 7 cbr 210 ------- 0 1.0 7.0 17 19
r 0.198884 5 7 cbr 210 ------- 0 1.0 7.0 14 16
r 0.200752 0 2 tcp 1040 ------- 0 0.0 6.0 1 24
+ 0.200752 2 3 tcp 1040 ------- 0 0.0 6.0 1 24
- 0.200752 2 3 tcp 1040 ------- 0 0.0 6.0 1 24
+ 0.20125 1 2 cbr 210 ------- 0 1.0 7.0 27 31
- 0.20125 1 2 cbr 210 ------- 0 1.0 7.0 27 31
r 0.20168 1 2 cbr 210 ------- 0 1.0 7.0 24 28
+ 0.20168 2 3 cbr 210 ------- 0 1.0 7.0 24 28
r 0.201774 2 3 cbr 210 ------- 0 1.0 7.0 21 23
+ 0.201774 3 5 cbr 210 ------- 0 1.0 7.0 21 23
- 0.201774 3 5 cbr 210 ------- 0 1.0 7.0 21 23
r 0.202204 3 5 cbr 210 ------- 0 1.0 7.0 18 20
+ 0.202204 5 7 cbr 210 ------- 0 1.0 7.0 18 20
- 0.202204 5 7 cbr 210 ------- 0 1.0 7.0 18 20
r 0.202634 5 7 cbr 210 ------- 0 1.0 7.0 15 17
+ 0.205 1 2 cbr 210 ------- 0 1.0 7.0 28 32
- 0.205 1 2 cbr 210 ------- 0 1.0 7.0 28 32
r 0.20543 1 2 cbr 210 ------- 0 1.0 7.0 25 29
+ 0.20543 2 3 cbr 210 ------- 0 1.0 7.0 25 29
r 0.205524 2 3 cbr 210 ------- 0 1.0 7.0 22 26
+ 0.205524 3 5 cbr 210 ------- 0 1.0 7.0 22 26
- 0.205524 3 5 cbr 210 ------- 0 1.0 7.0 22 26
r 0.205954 3 5 cbr 210 ------- 0 1.0 7.0 19 21
+ 0.205954 5 7 cbr 210 ------- 0 1.0 7.0 19 21
- 0.205954 5 7 cbr 210 ------- 0 1.0 7.0 19 21
r 0.206384 5 7 cbr 210 ------- 0 1.0 7.0 16 18
- 0.207408 2 3 cbr 210 ------- 0 1.0 7.0 24 28
+ 0.20875 1 2 cbr 210 ------- 0 1.0 7.0 29 33
- 0.20875 1 2 cbr 210 ------- 0 1.0 7.0 29 33
- 0.208752 2 3 cbr 210 ------- 0 1.0 7.0 25 29
r 0.209072 0 2 tcp 1040 ------- 0 0.0 6.0 2 25
+ 0.209072 2 3 tcp 1040 ------- 0 0.0 6.0 2 25
r 0.20918 1 2 cbr 210 ------- 0 1.0 7.0 26 30
+ 0.20918 2 3 cbr 210 ------- 0 1.0 7.0 26 30
r 0.209274 2 3 cbr 210 ------- 0 1.0 7.0 23 27
+ 0.209274 3 5 cbr 210 ------- 0 1.0 7.0 23 27
- 0.209274 3 5 cbr 210 ------- 0 1.0 7.0 23 27
r 0.209704 3 5 cbr 210 ------- 0 1.0 7.0 20 22
+ 0.209704 5 7 cbr 210 ------- 0 1.0 7.0 20 22
- 0.209704 5 7 cbr 210 ------- 0 1.0 7.0 20 22
- 0.210096 2 3 tcp 1040 ------- 0 0.0 6.0 2 25
r 0.210134 5 7 cbr 210 ------- 0 1.0 7.0 17 19
+ 0.2125 1 2 cbr 210 ------- 0 1.0 7.0 30 34
- 0.2125 1 2 cbr 210 ------- 0 1.0 7.0 30 34
r 0.21293 1 2 cbr 210 ------- 0 1.0 7.0 27 31
+ 0.21293 2 3 cbr 210 ------- 0 1.0 7.0 27 31
r 0.213454 3 5 cbr 210 ------- 0 1.0 7.0 21 23
+ 0.213454 5 7 cbr 210 ------- 0 1.0 7.0 21 23
- 0.213454 5 7 cbr 210 ------- 0 1.0 7.0 21 23
r 0.213884 5 7 cbr 210 ------- 0 1.0 7.0 18 20
+ 0.21625 1 2 cbr 210 ------- 0 1.0 7.0 31 35
- 0.21625 1 2 cbr 210 ------- 0 1.0 7.0 31 35
r 0.21668 1 2 cbr 210 ------- 0 1.0 7.0 28 32
+ 0.21668 2 3 cbr 210 ------- 0 1.0 7.0 28 32
- 0.216752 2 3 cbr 210 ------- 0 1.0 7.0 26 30
r 0.217204 3 5 cbr 210 ------- 0 1.0 7.0 22 26
+ 0.217204 5 7 cbr 210 ------- 0 1.0 7.0 22 26
- 0.217204 5 7 cbr 210 ------- 0 1.0 7.0 22 26
r 0.217408 2 3 tcp 1040 ------- 0 0.0 6.0 1 24
+ 0.217408 3 4 tcp 1040 ------- 0 0.0 6.0 1 24
- 0.217408 3 4 tcp 1040 ------- 0 0.0 6.0 1 24
r 0.217634 5 7 cbr 210 ------- 0 1.0 7.0 19 21
- 0.218096 2 3 cbr 210 ------- 0 1.0 7.0 27 31
r 0.218752 2 3 cbr 210 ------- 0 1.0 7.0 24 28
+ 0.218752 3 5 cbr 210 ------- 0 1.0 7.0 24 28
- 0.218752 3 5 cbr 210 ------- 0 1.0 7.0 24 28
- 0.21944 2 3 cbr 210 ------- 0 1.0 7.0 28 32
+ 0.22 1 2 cbr 210 ------- 0 1.0 7.0 32 36
- 0.22 1 2 cbr 210 ------- 0 1.0 7.0 32 36
r 0.220096 2 3 cbr 210 ------- 0 1.0 7.0 25 29
+ 0.220096 3 5 cbr 210 ------- 0 1.0 7.0 25 29
r 0.22043 1 2 cbr 210 ------- 0 1.0 7.0 29 33
+ 0.22043 2 3 cbr 210 ------- 0 1.0 7.0 29 33
- 0.220432 3 5 cbr 210 ------- 0 1.0 7.0 25 29
- 0.220784 2 3 cbr 210 ------- 0 1.0 7.0 29 33
r 0.220954 3 5 cbr 210 ------- 0 1.0 7.0 23 27
+ 0.220954 5 7 cbr 210 ------- 0 1.0 7.0 23 27
- 0.220954 5 7 cbr 210 ------- 0 1.0 7.0 23 27
r 0.221384 5 7 cbr 210 ------- 0 1.0 7.0 20 22
+ 0.22375 1 2 cbr 210 ------- 0 1.0 7.0 33 37
- 0.22375 1 2 cbr 210 ------- 0 1.0 7.0 33 37
r 0.22418 1 2 cbr 210 ------- 0 1.0 7.0 30 34
+ 0.22418 2 3 cbr 210 ------- 0 1.0 7.0 30 34
- 0.22418 2 3 cbr 210 ------- 0 1.0 7.0 30 34
r 0.225134 5 7 cbr 210 ------- 0 1.0 7.0 21 23
r 0.226752 2 3 tcp 1040 ------- 0 0.0 6.0 2 25
+ 0.226752 3 4 tcp 1040 ------- 0 0.0 6.0 2 25
- 0.226752 3 4 tcp 1040 ------- 0 0.0 6.0 2 25
+ 0.2275 1 2 cbr 210 ------- 0 1.0 7.0 34 38
- 0.2275 1 2 cbr 210 ------- 0 1.0 7.0 34 38
r 0.22793 1 2 cbr 210 ------- 0 1.0 7.0 31 35
+ 0.22793 2 3 cbr 210 ------- 0 1.0 7.0 31 35
- 0.22793 2 3 cbr 210 ------- 0 1.0 7.0 31 35
r 0.228096 2 3 cbr 210 ------- 0 1.0 7.0 26 30
+ 0.228096 3 5 cbr 210 ------- 0 1.0 7.0 26 30
- 0.228096 3 5 cbr 210 ------- 0 1.0 7.0 26 30
r 0.228884 5 7 cbr 210 ------- 0 1.0 7.0 22 26
r 0.22944 2 3 cbr 210 ------- 0 1.0 7.0 27 31
+ 0.22944 3 5 cbr 210 ------- 0 1.0 7.0 27 31
- 0.229776 3 5 cbr 210 ------- 0 1.0 7.0 27 31
r 0.230432 3 5 cbr 210 ------- 0 1.0 7.0 24 28
+ 0.230432 5 7 cbr 210 ------- 0 1.0 7.0 24 28
- 0.230432 5 7 cbr 210 ------- 0 1.0 7.0 24 28
r 0.230784 2 3 cbr 210 ------- 0 1.0 7.0 28 32
+ 0.230784 3 5 cbr 210 ------- 0 1.0 7.0 28 32
+ 0.23125 1 2 cbr 210 ------- 0 1.0 7.0 35 39
- 0.23125 1 2 cbr 210 ------- 0 1.0 7.0 35 39
- 0.231456 3 5 cbr 210 ------- 0 1.0 7.0 28 32
r 0.23168 1 2 cbr 210 ------- 0 1.0 7.0 32 36
+ 0.23168 2 3 cbr 210 ------- 0 1.0 7.0 32 36
- 0.23168 2 3 cbr 210 ------- 0 1.0 7.0 32 36
r 0.232112 3 5 cbr 210 ------- 0 1.0 7.0 25 29
+ 0.232112 5 7 cbr 210 ------- 0 1.0 7.0 25 29
- 0.232112 5 7 cbr 210 ------- 0 1.0 7.0 25 29
r 0.232128 2 3 cbr 210 ------- 0 1.0 7.0 29 33
+ 0.232128 3 5 cbr 210 ------- 0 1.0 7.0 29 33
r 0.232634 5 7 cbr 210 ------- 0 1.0 7.0 23 27
- 0.233136 3 5 cbr 210 ------- 0 1.0 7.0 29 33
+ 0.235 1 2 cbr 210 ------- 0 1.0 7.0 36 40
- 0.235 1 2 cbr 210 ------- 0 1.0 7.0 36 40
r 0.23543 1 2 cbr 210 ------- 0 1.0 7.0 33 37
+ 0.23543 2 3 cbr 210 ------- 0 1.0 7.0 33 37
- 0.23543 2 3 cbr 210 ------- 0 1.0 7.0 33 37
r 0.235524 2 3 cbr 210 ------- 0 1.0 7.0 30 34
+ 0.235524 3 5 cbr 210 ------- 0 1.0 7.0 30 34
- 0.235524 3 5 cbr 210 ------- 0 1.0 7.0 30 34
r 0.235728 3 4 tcp 1040 ------- 0 0.0 6.0 1 24
+ 0.235728 4 6 tcp 1040 ------- 0 0.0 6.0 1 24
- 0.235728 4 6 tcp 1040 ------- 0 0.0 6.0 1 24
+ 0.23875 1 2 cbr 210 ------- 0 1.0 7.0 37 41
- 0.23875 1 2 cbr 210 ------- 0 1.0 7.0 37 41
r 0.23918 1 2 cbr 210 ------- 0 1.0 7.0 34 38
+ 0.23918 2 3 cbr 210 ------- 0 1.0 7.0 34 38
- 0.23918 2 3 cbr 210 ------- 0 1.0 7.0 34 38
r 0.239274 2 3 cbr 210 ------- 0 1.0 7.0 31 35
+ 0.239274 3 5 cbr 210 ------- 0 1.0 7.0 31 35
- 0.239274 3 5 cbr 210 ------- 0 1.0 7.0 31 35
r 0.239776 3 5 cbr 210 ------- 0 1.0 7.0 26 30
+ 0.239776 5 7 cbr 210 ------- 0 1.0 7.0 26 30
- 0.239776 5 7 cbr 210 ------- 0 1.0 7.0 26 30
r 0.241456 3 5 cbr 210 ------- 0 1.0 7.0 27 31
+ 0.241456 5 7 cbr 210 ------- 0 1.0 7.0 27 31
- 0.241456 5 7 cbr 210 ------- 0 1.0 7.0 27 31
r 0.242112 5 7 cbr 210 ------- 0 1.0 7.0 24 28
+ 0.2425 1 2 cbr 210 ------- 0 1.0 7.0 38 42
- 0.2425 1 2 cbr 210 ------- 0 1.0 7.0 38 42
r 0.24293 1 2 cbr 210 ------- 0 1.0 7.0 35 39
+ 0.24293 2 3 cbr 210 ------- 0 1.0 7.0 35 39
- 0.24293 2 3 cbr 210 ------- 0 1.0 7.0 35 39
r 0.243024 2 3 cbr 210 ------- 0 1.0 7.0 32 36
+ 0.243024 3 5 cbr 210 ------- 0 1.0 7.0 32 36
- 0.243024 3 5 cbr 210 ------- 0 1.0 7.0 32 36
r 0.243136 3 5 cbr 210 ------- 0 1.0 7.0 28 32
+ 0.243136 5 7 cbr 210 ------- 0 1.0 7.0 28 32
- 0.243136 5 7 cbr 210 ------- 0 1.0 7.0 28 32
r 0.243792 5 7 cbr 210 ------- 0 1.0 7.0 25 29
r 0.244816 3 5 cbr 210 ------- 0 1.0 7.0 29 33
+ 0.244816 5 7 cbr 210 ------- 0 1.0 7.0 29 33
- 0.244816 5 7 cbr 210 ------- 0 1.0 7.0 29 33
r 0.245072 3 4 tcp 1040 ------- 0 0.0 6.0 2 25
+ 0.245072 4 6 tcp 1040 ------- 0 0.0 6.0 2 25
- 0.245072 4 6 tcp 1040 ------- 0 0.0 6.0 2 25
+ 0.24625 1 2 cbr 210 ------- 0 1.0 7.0 39 43
- 0.24625 1 2 cbr 210 ------- 0 1.0 7.0 39 43
r 0.24668 1 2 cbr 210 ------- 0 1.0 7.0 36 40
+ 0.24668 2 3 cbr 210 ------- 0 1.0 7.0 36 40
- 0.24668 2 3 cbr 210 ------- 0 1.0 7.0 36 40
r 0.246774 2 3 cbr 210 ------- 0 1.0 7.0 33 37
+ 0.246774 3 5 cbr 210 ------- 0 1.0 7.0 33 37
- 0.246774 3 5 cbr 210 ------- 0 1.0 7.0 33 37
r 0.247204 3 5 cbr 210 ------- 0 1.0 7.0 30 34
+ 0.247204 5 7 cbr 210 ------- 0 1.0 7.0 30 34
- 0.247204 5 7 cbr 210 ------- 0 1.0 7.0 30 34
+ 0.25 1 2 cbr 210 ------- 0 1.0 7.0 40 44
- 0.25 1 2 cbr 210 ------- 0 1.0 7.0 40 44
r 0.25043 1 2 cbr 210 ------- 0 1.0 7.0 37 41
+ 0.25043 2 3 cbr 210 ------- 0 1.0 7.0 37 41
- 0.25043 2 3 cbr 210 ------- 0 1.0 7.0 37 41
r 0.250524 2 3 cbr 210 ------- 0 1.0 7.0 34 38
+ 0.250524 3 5 cbr 210 ------- 0 1.0 7.0 34 38
- 0.250524 3 5 cbr 210 ------- 0 1.0 7.0 34 38
r 0.250954 3 5 cbr 210 ------- 0 1.0 7.0 31 35
+ 0.250954 5 7 cbr 210 ------- 0 1.0 7.0 31 35
- 0.250954 5 7 cbr 210 ------- 0 1.0 7.0 31 35
r 0.251456 5 7 cbr 210 ------- 0 1.0 7.0 26 30
r 0.253136 5 7 cbr 210 ------- 0 1.0 7.0 27 31
+ 0.25375 1 2 cbr 210 ------- 0 1.0 7.0 41 45
- 0.25375 1 2 cbr 210 ------- 0 1.0 7.0 41 45
r 0.254048 4 6 tcp 1040 ------- 0 0.0 6.0 1 24
+ 0.254048 6 4 ack 40 ------- 0 6.0 0.0 1 46
- 0.254048 6 4 ack 40 ------- 0 6.0 0.0 1 46
r 0.25418 1 2 cbr 210 ------- 0 1.0 7.0 38 42
+ 0.25418 2 3 cbr 210 ------- 0 1.0 7.0 38 42
- 0.25418 2 3 cbr 210 ------- 0 1.0 7.0 38 42
r 0.254274 2 3 cbr 210 ------- 0 1.0 7.0 35 39
+ 0.254274 3 5 cbr 210 ------- 0 1.0 7.0 35 39
- 0.254274 3 5 cbr 210 ------- 0 1.0 7.0 35 39
r 0.254704 3 5 cbr 210 ------- 0 1.0 7.0 32 36
+ 0.254704 5 7 cbr 210 ------- 0 1.0 7.0 32 36
- 0.254704 5 7 cbr 210 ------- 0 1.0 7.0 32 36
r 0.254816 5 7 cbr 210 ------- 0 1.0 7.0 28 32
r 0.256496 5 7 cbr 210 ------- 0 1.0 7.0 29 33
+ 0.2575 1 2 cbr 210 ------- 0 1.0 7.0 42 47
- 0.2575 1 2 cbr 210 ------- 0 1.0 7.0 42 47
r 0.25793 1 2 cbr 210 ------- 0 1.0 7.0 39 43
+ 0.25793 2 3 cbr 210 ------- 0 1.0 7.0 39 43
- 0.25793 2 3 cbr 210 ------- 0 1.0 7.0 39 43
r 0.258024 2 3 cbr 210 ------- 0 1.0 7.0 36 40
+ 0.258024 3 5 cbr 210 ------- 0 1.0 7.0 36 40
- 0.258024 3 5 cbr 210 ------- 0 1.0 7.0 36 40
r 0.258454 3 5 cbr 210 ------- 0 1.0 7.0 33 37
+ 0.258454 5 7 cbr 210 ------- 0 1.0 7.0 33 37
- 0.258454 5 7 cbr 210 ------- 0 1.0 7.0 33 37
r 0.258884 5 7 cbr 210 ------- 0 1.0 7.0 30 34
+ 0.26125 1 2 cbr 210 ------- 0 1.0 7.0 43 48
- 0.26125 1 2 cbr 210 ------- 0 1.0 7.0 43 48
r 0.26168 1 2 cbr 210 ------- 0 1.0 7.0 40 44
+ 0.26168 2 3 cbr 210 ------- 0 1.0 7.0 40 44
- 0.26168 2 3 cbr 210 ------- 0 1.0 7.0 40 44
r 0.261774 2 3 cbr 210 ------- 0 1.0 7.0 37 41
+ 0.261774 3 5 cbr 210 ------- 0 1.0 7.0 37 41
- 0.261774 3 5 cbr 210 ------- 0 1.0 7.0 37 41
r 0.262204 3 5 cbr 210 ------- 0 1.0 7.0 34 38
+ 0.262204 5 7 cbr 210 ------- 0 1.0 7.0 34 38
- 0.262204 5 7 cbr 210 ------- 0 1.0 7.0 34 38
r 0.262634 5 7 cbr 210 ------- 0 1.0 7.0 31 35
r 0.263392 4 6 tcp 1040 ------- 0 0.0 6.0 2 25
+ 0.263392 6 4 ack 40 ------- 0 6.0 0.0 2 49
- 0.263392 6 4 ack 40 ------- 0 6.0 0.0 2 49
r 0.264368 6 4 ack 40 ------- 0 6.0 0.0 1 46
+ 0.264368 4 3 ack 40 ------- 0 6.0 0.0 1 46
- 0.264368 4 3 ack 40 ------- 0 6.0 0.0 1 46
+ 0.265 1 2 cbr 210 ------- 0 1.0 7.0 44 50
- 0.265 1 2 cbr 210 ------- 0 1.0 7.0 44 50
r 0.26543 1 2 cbr 210 ------- 0 1.0 7.0 41 45
+ 0.26543 2 3 cbr 210 ------- 0 1.0 7.0 41 45
- 0.26543 2 3 cbr 210 ------- 0 1.0 7.0 41 45
r 0.265524 2 3 cbr 210 ------- 0 1.0 7.0 38 42
+ 0.265524 3 5 cbr 210 ------- 0 1.0 7.0 38 42
- 0.265524 3 5 cbr 210 ------- 0 1.0 7.0 38 42
r 0.265954 3 5 cbr 210 ------- 0 1.0 7.0 35 39
+ 0.265954 5 7 cbr 210 ------- 0 1.0 7.0 35 39
- 0.265954 5 7 cbr 210 ------- 0 1.0 7.0 35 39
r 0.266384 5 7 cbr 210 ------- 0 1.0 7.0 32 36
+ 0.26875 1 2 cbr 210 ------- 0 1.0 7.0 45 51
- 0.26875 1 2 cbr 210 ------- 0 1.0 7.0 45 51
r 0.26918 1 2 cbr 210 ------- 0 1.0 7.0 42 47
+ 0.26918 2 3 cbr 210 ------- 0 1.0 7.0 42 47
- 0.26918 2 3 cbr 210 ------- 0 1.0 7.0 42 47
r 0.269274 2 3 cbr 210 ------- 0 1.0 7.0 39 43
+ 0.269274 3 5 cbr 210 ------- 0 1.0 7.0 39 43
- 0.269274 3 5 cbr 210 ------- 0 1.0 7.0 39 43
r 0.269704 3 5 cbr 210 ------- 0 1.0 7.0 36 40
+ 0.269704 5 7 cbr 210 ------- 0 1.0 7.0 36 40
- 0.269704 5 7 cbr 210 ------- 0 1.0 7.0 36 40
r 0.270134 5 7 cbr 210 ------- 0 1.0 7.0 33 37
+ 0.2725 1 2 cbr 210 ------- 0 1.0 7.0 46 52
- 0.2725 1 2 cbr 210 ------- 0 1.0 7.0 46 52
r 0.27293 1 2 cbr 210 ------- 0 1.0 7.0 43 48
+ 0.27293 2 3 cbr 210 ------- 0 1.0 7.0 43 48
- 0.27293 2 3 cbr 210 ------- 0 1.0 7.0 43 48
r 0.273024 2 3 cbr 210 ------- 0 1.0 7.0 40 44
+ 0.273024 3 5 cbr 210 ------- 0 1.0 7.0 40 44
- 0.273024 3 5 cbr 210 ------- 0 1.0 7.0 40 44
r 0.273454 3 5 cbr 210 ------- 0 1.0 7.0 37 41
+ 0.273454 5 7 cbr 210 ------- 0 1.0 7.0 37 41
- 0.273454 5 7 cbr 210 ------- 0 1.0 7.0 37 41
r 0.273712 6 4 ack 40 ------- 0 6.0 0.0 2 49
+ 0.273712 4 3 ack 40 ------- 0 6.0 0.0 2 49
- 0.273712 4 3 ack 40 ------- 0 6.0 0.0 2 49
r 0.273884 5 7 cbr 210 ------- 0 1.0 7.0 34 38
r 0.274688 4 3 ack 40 ------- 0 6.0 0.0 1 46
+ 0.274688 3 2 ack 40 ------- 0 6.0 0.0 1 46
- 0.274688 3 2 ack 40 ------- 0 6.0 0.0 1 46
+ 0.27625 1 2 cbr 210 ------- 0 1.0 7.0 47 53
- 0.27625 1 2 cbr 210 ------- 0 1.0 7.0 47 53
r 0.27668 1 2 cbr 210 ------- 0 1.0 7.0 44 50
+ 0.27668 2 3 cbr 210 ------- 0 1.0 7.0 44 50
- 0.27668 2 3 cbr 210 ------- 0 1.0 7.0 44 50
r 0.276774 2 3 cbr 210 ------- 0 1.0 7.0 41 45
+ 0.276774 3 5 cbr 210 ------- 0 1.0 7.0 41 45
- 0.276774 3 5 cbr 210 ------- 0 1.0 7.0 41 45
r 0.277204 3 5 cbr 210 ------- 0 1.0 7.0 38 42
+ 0.277204 5 7 cbr 210 ------- 0 1.0 7.0 38 42
- 0.277204 5 7 cbr 210 ------- 0 1.0 7.0 38 42
r 0.277634 5 7 cbr 210 ------- 0 1.0 7.0 35 39
+ 0.28 1 2 cbr 210 ------- 0 1.0 7.0 48 54
- 0.28 1 2 cbr 210 ------- 0 1.0 7.0 48 54
r 0.28043 1 2 cbr 210 ------- 0 1.0 7.0 45 51
+ 0.28043 2 3 cbr 210 ------- 0 1.0 7.0 45 51
- 0.28043 2 3 cbr 210 ------- 0 1.0 7.0 45 51
r 0.280524 2 3 cbr 210 ------- 0 1.0 7.0 42 47
+ 0.280524 3 5 cbr 210 ------- 0 1.0 7.0 42 47
- 0.280524 3 5 cbr 210 ------- 0 1.0 7.0 42 47
r 0.280954 3 5 cbr 210 ------- 0 1.0 7.0 39 43
+ 0.280954 5 7 cbr 210 ------- 0 1.0 7.0 39 43
- 0.280954 5 7 cbr 210 ------- 0 1.0 7.0 39 43
r 0.281384 5 7 cbr 210 ------- 0 1.0 7.0 36 40
+ 0.28375 1 2 cbr 210 ------- 0 1.0 7.0 49 55
- 0.28375 1 2 cbr 210 ------- 0 1.0 7.0 49 55
r 0.284032 4 3 ack 40 ------- 0 6.0 0.0 2 49
+ 0.284032 3 2 ack 40 ------- 0 6.0 0.0 2 49
- 0.284032 3 2 ack 40 ------- 0 6.0 0.0 2 49
r 0.28418 1 2 cbr 210 ------- 0 1.0 7.0 46 52
+ 0.28418 2 3 cbr 210 ------- 0 1.0 7.0 46 52
- 0.28418 2 3 cbr 210 ------- 0 1.0 7.0 46 52
r 0.284274 2 3 cbr 210 ------- 0 1.0 7.0 43 48
+ 0.284274 3 5 cbr 210 ------- 0 1.0 7.0 43 48
- 0.284274 3 5 cbr 210 ------- 0 1.0 7.0 43 48
r 0.284704 3 5 cbr 210 ------- 0 1.0 7.0 40 44
+ 0.284704 5 7 cbr 210 ------- 0 1.0 7.0 40 44
- 0.284704 5 7 cbr 210 ------- 0 1.0 7.0 40 44
r 0.284944 3 2 ack 40 ------- 0 6.0 0.0 1 46
+ 0.284944 2 0 ack 40 ------- 0 6.0 0.0 1 46
- 0.284944 2 0 ack 40 ------- 0 6.0 0.0 1 46
r 0.285134 5 7 cbr 210 ------- 0 1.0 7.0 37 41
+ 0.2875 1 2 cbr 210 ------- 0 1.0 7.0 50 56
- 0.2875 1 2 cbr 210 ------- 0 1.0 7.0 50 56
r 0.28793 1 2 cbr 210 ------- 0 1.0 7.0 47 53
+ 0.28793 2 3 cbr 210 ------- 0 1.0 7.0 47 53
- 0.28793 2 3 cbr 210 ------- 0 1.0 7.0 47 53
r 0.288024 2 3 cbr 210 ------- 0 1.0 7.0 44 50
+ 0.288024 3 5 cbr 210 ------- 0 1.0 7.0 44 50
- 0.288024 3 5 cbr 210 ------- 0 1.0 7.0 44 50
r 0.288454 3 5 cbr 210 ------- 0 1.0 7.0 41 45
+ 0.288454 5 7 cbr 210 ------- 0 1.0 7.0 41 45
- 0.288454 5 7 cbr 210 ------- 0 1.0 7.0 41 45
r 0.288884 5 7 cbr 210 ------- 0 1.0 7.0 38 42
+ 0.29125 1 2 cbr 210 ------- 0 1.0 7.0 51 57
- 0.29125 1 2 cbr 210 ------- 0 1.0 7.0 51 57
r 0.29168 1 2 cbr 210 ------- 0 1.0 7.0 48 54
+ 0.29168 2 3 cbr 210 ------- 0 1.0 7.0 48 54
- 0.29168 2 3 cbr 210 ------- 0 1.0 7.0 48 54
r 0.291774 2 3 cbr 210 ------- 0 1.0 7.0 45 51
+ 0.291774 3 5 cbr 210 ------- 0 1.0 7.0 45 51
- 0.291774 3 5 cbr 210 ------- 0 1.0 7.0 45 51
r 0.292204 3 5 cbr 210 ------- 0 1.0 7.0 42 47
+ 0.292204 5 7 cbr 210 ------- 0 1.0 7.0 42 47
- 0.292204 5 7 cbr 210 ------- 0 1.0 7.0 42 47
r 0.292634 5 7 cbr 210 ------- 0 1.0 7.0 39 43
r 0.294288 3 2 ack 40 ------- 0 6.0 0.0 2 49
+ 0.294288 2 0 ack 40 ------- 0 6.0 0.0 2 49
- 0.294288 2 0 ack 40 ------- 0 6.0 0.0 2 49
+ 0.295 1 2 cbr 210 ------- 0 1.0 7.0 52 58
- 0.295 1 2 cbr 210 ------- 0 1.0 7.0 52 58
r 0.295264 2 0 ack 40 ------- 0 6.0 0.0 1 46
+ 0.295264 0 2 tcp 1040 ------- 0 0.0 6.0 3 59
- 0.295264 0 2 tcp 1040 ------- 0 0.0 6.0 3 59
+ 0.295264 0 2 tcp 1040 ------- 0 0.0 6.0 4 60
r 0.29543 1 2 cbr 210 ------- 0 1.0 7.0 49 55
+ 0.29543 2 3 cbr 210 ------- 0 1.0 7.0 49 55
- 0.29543 2 3 cbr 210 ------- 0 1.0 7.0 49 55
r 0.295524 2 3 cbr 210 ------- 0 1.0 7.0 46 52
+ 0.295524 3 5 cbr 210 ------- 0 1.0 7.0 46 52
- 0.295524 3 5 cbr 210 ------- 0 1.0 7.0 46 52
r 0.295954 3 5 cbr 210 ------- 0 1.0 7.0 43 48
+ 0.295954 5 7 cbr 210 ------- 0 1.0 7.0 43 48
- 0.295954 5 7 cbr 210 ------- 0 1.0 7.0 43 48
r 0.296384 5 7 cbr 210 ------- 0 1.0 7.0 40 44
+ 0.29875 1 2 cbr 210 ------- 0 1.0 7.0 53 61
- 0.29875 1 2 cbr 210 ------- 0 1.0 7.0 53 61
r 0.29918 1 2 cbr 210 ------- 0 1.0 7.0 50 56
+ 0.29918 2 3 cbr 210 ------- 0 1.0 7.0 50 56
- 0.29918 2 3 cbr 210 ------- 0 1.0 7.0 50 56
r 0.299274 2 3 cbr 210 ------- 0 1.0 7.0 47 53
+ 0.299274 3 5 cbr 210 ------- 0 1.0 7.0 47 53
- 0.299274 3 5 cbr 210 ------- 0 1.0 7.0 47 53
r 0.299704 3 5 cbr 210 ------- 0 1.0 7.0 44 50