+ 0.1 0 2 tcp 40 ------- 0 0.0 6.0 0 0
- 0.1 0 2 tcp 40 ------- 0 0.0 6.0 0 0
+ 0.1 1 2 cbr 210 ------- 0 1.0 7.0 0 1
- 0.1 1 2 cbr 210 ------- 0 1.0 7.0 0 1
+ 0.10375 1 2 cbr 210 ------- 0 1.0 7.0 1 2
- 0.10375 1 2 cbr 210 ------- 0 1.0 7.0 1 2
+ 0.1075 1 2 cbr 210 ------- 0 1.0 7.0 2 3
- 0.1075 1 2 cbr 210 ------- 0 1.0 7.0 2 3
r 0.11032 0 2 tcp 40 ------- 0 0.0 6.0 0 0
+ 0.11032 2 3 tcp 40 ------- 0 0.0 6.0 0 0
- 0.11032 2 3 tcp 40 ------- 0 0.0 6.0 0 0
+ 0.11125 1 2 cbr 210 ------- 0 1.0 7.0 3 4
- 0.11125 1 2 cbr 210 ------- 0 1.0 7.0 3 4
r 0.11168 1 2 cbr 210 ------- 0 1.0 7.0 0 1
+ 0.11168 2 3 cbr 210 ------- 0 1.0 7.0 0 1
- 0.11168 2 3 cbr 210 ------- 0 1.0 7.0 0 1
+ 0.115 1 2 cbr 210 ------- 0 1.0 7.0 4 5
- 0.115 1 2 cbr 210 ------- 0 1.0 7.0 4 5
r 0.11543 1 2 cbr 210 ------- 0 1.0 7.0 1 2
+ 0.11543 2 3 cbr 210 ------- 0 1.0 7.0 1 2
- 0.11543 2 3 cbr 210 ------- 0 1.0 7.0 1 2
+ 0.11875 1 2 cbr 210 ------- 0 1.0 7.0 5 6
- 0.11875 1 2 cbr 210 ------- 0 1.0 7.0 5 6
r 0.11918 1 2 cbr 210 ------- 0 1.0 7.0 2 3
+ 0.11918 2 3 cbr 210 ------- 0 1.0 7.0 2 3
- 0.11918 2 3 cbr 210 ------- 0 1.0 7.0 2 3
r 0.120448 2 3 tcp 40 ------- 0 0.0 6.0 0 0
+ 0.120448 3 4 tcp 40 ------- 0 0.0 6.0 0 0
- 0.120448 3 4 tcp 40 ------- 0 0.0 6.0 0 0
r 0.122352 2 3 cbr 210 ------- 0 1.0 7.0 0 1
+ 0.122352 3 5 cbr 210 ------- 0 1.0 7.0 0 1
- 0.122352 3 5 cbr 210 ------- 0 1.0 7.0 0 1
+ 0.1225 1 2 cbr 210 ------- 0 1.0 7.0 6 7
- 0.1225 1 2 cbr 210 ------- 0 1.0 7.0 6 7
r 0.12293 1 2 cbr 210 ------- 0 1.0 7.0 3 4
+ 0.12293 2 3 cbr 210 ------- 0 1.0 7.0 3 4
- 0.12293 2 3 cbr 210 ------- 0 1.0 7.0 3 4
r 0.126102 2 3 cbr 210 ------- 0 1.0 7.0 1 2
+ 0.126102 3 5 cbr 210 ------- 0 1.0 7.0 1 2
- 0.126102 3 5 cbr 210 ------- 0 1.0 7.0 1 2
+ 0.12625 1 2 cbr 210 ------- 0 1.0 7.0 7 8
- 0.12625 1 2 cbr 210 ------- 0 1.0 7.0 7 8
r 0.12668 1 2 cbr 210 ------- 0 1.0 7.0 4 5
+ 0.12668 2 3 cbr 210 ------- 0 1.0 7.0 4 5
- 0.12668 2 3 cbr 210 ------- 0 1.0 7.0 4 5
r 0.129852 2 3 cbr 210 ------- 0 1.0 7.0 2 3
+ 0.129852 3 5 cbr 210 ------- 0 1.0 7.0 2 3
- 0.129852 3 5 cbr 210 ------- 0 1.0 7.0 2 3
+ 0.13 1 2 cbr 210 ------- 0 1.0 7.0 8 9
- 0.13 1 2 cbr 210 ------- 0 1.0 7.0 8 9
r 0.13043 1 2 cbr 210 ------- 0 1.0 7.0 5 6
+ 0.13043 2 3 cbr 210 ------- 0 1.0 7.0 5 6
- 0.13043 2 3 cbr 210 ------- 0 1.0 7.0 5 6
r 0.130768 3 4 tcp 40 ------- 0 0.0 6.0 0 0
+ 0.130768 4 6 tcp 40 ------- 0 0.0 6.0 0 0
- 0.130768 4 6 tcp 40 ------- 0 0.0 6.0 0 0
r 0.133602 2 3 cbr 210 ------- 0 1.0 7.0 3 4
+ 0.133602 3 5 cbr 210 ------- 0 1.0 7.0 3 4
- 0.133602 3 5 cbr 210 ------- 0 1.0 7.0 3 4
+ 0.13375 1 2 cbr 210 ------- 0 1.0 7.0 9 10
- 0.13375 1 2 cbr 210 ------- 0 1.0 7.0 9 10
r 0.134032 3 5 cbr 210 ------- 0 1.0 7.0 0 1
+ 0.134032 5 7 cbr 210 ------- 0 1.0 7.0 0 1
- 0.134032 5 7 cbr 210 ------- 0 1.0 7.0 0 1
r 0.13418 1 2 cbr 210 ------- 0 1.0 7.0 6 7
+ 0.13418 2 3 cbr 210 ------- 0 1.0 7.0 6 7
- 0.13418 2 3 cbr 210 ------- 0 1.0 7.0 6 7
r 0.137352 2 3 cbr 210 ------- 0 1.0 7.0 4 5
+ 0.137352 3 5 cbr 210 ------- 0 1.0 7.0 4 5
- 0.137352 3 5 cbr 210 ------- 0 1.0 7.0 4 5
+ 0.1375 1 2 cbr 210 ------- 0 1.0 7.0 10 11
- 0.1375 1 2 cbr 210 ------- 0 1.0 7.0 10 11
r 0.137782 3 5 cbr 210 ------- 0 1.0 7.0 1 2
+ 0.137782 5 7 cbr 210 ------- 0 1.0 7.0 1 2
- 0.137782 5 7 cbr 210 ------- 0 1.0 7.0 1 2
r 0.13793 1 2 cbr 210 ------- 0 1.0 7.0 7 8
+ 0.13793 2 3 cbr 210 ------- 0 1.0 7.0 7 8
- 0.13793 2 3 cbr 210 ------- 0 1.0 7.0 7 8
r 0.141088 4 6 tcp 40 ------- 0 0.0 6.0 0 0
+ 0.141088 6 4 ack 40 ------- 0 6.0 0.0 0 12
- 0.141088 6 4 ack 40 ------- 0 6.0 0.0 0 12
r 0.141102 2 3 cbr 210 ------- 0 1.0 7.0 5 6
+ 0.141102 3 5 cbr 210 ------- 0 1.0 7.0 5 6
- 0.141102 3 5 cbr 210 ------- 0 1.0 7.0 5 6
+ 0.14125 1 2 cbr 210 ------- 0 1.0 7.0 11 13
- 0.14125 1 2 cbr 210 ------- 0 1.0 7.0 11 13
r 0.141532 3 5 cbr 210 ------- 0 1.0 7.0 2 3
+ 0.141532 5 7 cbr 210 ------- 0 1.0 7.0 2 3
- 0.141532 5 7 cbr 210 ------- 0 1.0 7.0 2 3
r 0.14168 1 2 cbr 210 ------- 0 1.0 7.0 8 9
+ 0.14168 2 3 cbr 210 ------- 0 1.0 7.0 8 9
- 0.14168 2 3 cbr 210 ------- 0 1.0 7.0 8 9
r 0.144852 2 3 cbr 210 ------- 0 1.0 7.0 6 7
+ 0.144852 3 5 cbr 210 ------- 0 1.0 7.0 6 7
- 0.144852 3 5 cbr 210 ------- 0 1.0 7.0 6 7
+ 0.145 1 2 cbr 210 ------- 0 1.0 7.0 12 14
- 0.145 1 2 cbr 210 ------- 0 1.0 7.0 12 14
r 0.145282 3 5 cbr 210 ------- 0 1.0 7.0 3 4
+ 0.145282 5 7 cbr 210 ------- 0 1.0 7.0 3 4
- 0.145282 5 7 cbr 210 ------- 0 1.0 7.0 3 4
r 0.14543 1 2 cbr 210 ------- 0 1.0 7.0 9 10
+ 0.14543 2 3 cbr 210 ------- 0 1.0 7.0 9 10
- 0.14543 2 3 cbr 210 ------- 0 1.0 7.0 9 10
r 0.145712 5 7 cbr 210 ------- 0 1.0 7.0 0 1
r 0.148602 2 3 cbr 210 ------- 0 1.0 7.0 7 8
+ 0.148602 3 5 cbr 210 ------- 0 1.0 7.0 7 8
- 0.148602 3 5 cbr 210 ------- 0 1.0 7.0 7 8
+ 0.14875 1 2 cbr 210 ------- 0 1.0 7.0 13 15
- 0.14875 1 2 cbr 210 ------- 0 1.0 7.0 13 15
r 0.149032 3 5 cbr 210 ------- 0 1.0 7.0 4 5
+ 0.149032 5 7 cbr 210 ------- 0 1.0 7.0 4 5
- 0.149032 5 7 cbr 210 ------- 0 1.0 7.0 4 5
r 0.14918 1 2 cbr 210 ------- 0 1.0 7.0 10 11
+ 0.14918 2 3 cbr 210 ------- 0 1.0 7.0 10 11
- 0.14918 2 3 cbr 210 ------- 0 1.0 7.0 10 11
r 0.149462 5 7 cbr 210 ------- 0 1.0 7.0 1 2
r 0.151408 6 4 ack 40 ------- 0 6.0 0.0 0 12
+ 0.151408 4 3 ack 40 ------- 0 6.0 0.0 0 12
- 0.151408 4 3 ack 40 ------- 0 6.0 0.0 0 12
r 0.152352 2 3 cbr 210 ------- 0 1.0 7.0 8 9
+ 0.152352 3 5 cbr 210 ------- 0 1.0 7.0 8 9
- 0.152352 3 5 cbr 210 ------- 0 1.0 7.0 8 9
+ 0.1525 1 2 cbr 210 ------- 0 1.0 7.0 14 16
- 0.1525 1 2 cbr 210 ------- 0 1.0 7.0 14 16
r 0.152782 3 5 cbr 210 ------- 0 1.0 7.0 5 6
+ 0.152782 5 7 cbr 210 ------- 0 1.0 7.0 5 6
- 0.152782 5 7 cbr 210 ------- 0 1.0 7.0 5 6
r 0.15293 1 2 cbr 210 ------- 0 1.0 7.0 11 13
+ 0.15293 2 3 cbr 210 ------- 0 1.0 7.0 11 13
- 0.15293 2 3 cbr 210 ------- 0 1.0 7.0 11 13
r 0.153212 5 7 cbr 210 ------- 0 1.0 7.0 2 3
r 0.156102 2 3 cbr 210 ------- 0 1.0 7.0 9 10
+ 0.156102 3 5 cbr 210 ------- 0 1.0 7.0 9 10
- 0.156102 3 5 cbr 210 ------- 0 1.0 7.0 9 10
+ 0.15625 1 2 cbr 210 ------- 0 1.0 7.0 15 17
- 0.15625 1 2 cbr 210 ------- 0 1.0 7.0 15 17
r 0.156532 3 5 cbr 210 ------- 0 1.0 7.0 6 7
+ 0.156532 5 7 cbr 210 ------- 0 1.0 7.0 6 7
- 0.156532 5 7 cbr 210 ------- 0 1.0 7.0 6 7
r 0.15668 1 2 cbr 210 ------- 0 1.0 7.0 12 14
+ 0.15668 2 3 cbr 210 ------- 0 1.0 7.0 12 14
- 0.15668 2 3 cbr 210 ------- 0 1.0 7.0 12 14
r 0.156962 5 7 cbr 210 ------- 0 1.0 7.0 3 4
r 0.159852 2 3 cbr 210 ------- 0 1.0 7.0 10 11
+ 0.159852 3 5 cbr 210 ------- 0 1.0 7.0 10 11
- 0.159852 3 5 cbr 210 ------- 0 1.0 7.0 10 11
+ 0.16 1 2 cbr 210 ------- 0 1.0 7.0 16 18
- 0.16 1 2 cbr 210 ------- 0 1.0 7.0 16 18
r 0.160282 3 5 cbr 210 ------- 0 1.0 7.0 7 8
+ 0.160282 5 7 cbr 210 ------- 0 1.0 7.0 7 8
- 0.160282 5 7 cbr 210 ------- 0 1.0 7.0 7 8
r 0.16043 1 2 cbr 210 ------- 0 1.0 7.0 13 15
+ 0.16043 2 3 cbr 210 ------- 0 1.0 7.0 13 15
- 0.16043 2 3 cbr 210 ------- 0 1.0 7.0 13 15
r 0.160712 5 7 cbr 210 ------- 0 1.0 7.0 4 5
r 0.161728 4 3 ack 40 ------- 0 6.0 0.0 0 12
+ 0.161728 3 2 ack 40 ------- 0 6.0 0.0 0 12
- 0.161728 3 2 ack 40 ------- 0 6.0 0.0 0 12
r 0.163602 2 3 cbr 210 ------- 0 1.0 7.0 11 13
+ 0.163602 3 5 cbr 210 ------- 0 1.0 7.0 11 13
- 0.163602 3 5 cbr 210 ------- 0 1.0 7.0 11 13
+ 0.16375 1 2 cbr 210 ------- 0 1.0 7.0 17 19
- 0.16375 1 2 cbr 210 ------- 0 1.0 7.0 17 19
r 0.164032 3 5 cbr 210 ------- 0 1.0 7.0 8 9
+ 0.164032 5 7 cbr 210 ------- 0 1.0 7.0 8 9
- 0.164032 5 7 cbr 210 ------- 0 1.0 7.0 8 9
r 0.16418 1 2 cbr 210 ------- 0 1.0 7.0 14 16
+ 0.16418 2 3 cbr 210 ------- 0 1.0 7.0 14 16
- 0.16418 2 3 cbr 210 ------- 0 1.0 7.0 14 16
r 0.164462 5 7 cbr 210 ------- 0 1.0 7.0 5 6
r 0.167352 2 3 cbr 210 ------- 0 1.0 7.0 12 14
+ 0.167352 3 5 cbr 210 ------- 0 1.0 7.0 12 14
- 0.167352 3 5 cbr 210 ------- 0 1.0 7.0 12 14
+ 0.1675 1 2 cbr 210 ------- 0 1.0 7.0 18 20
- 0.1675 1 2 cbr 210 ------- 0 1.0 7.0 18 20
r 0.167782 3 5 cbr 210 ------- 0 1.0 7.0 9 10
+ 0.167782 5 7 cbr 210 ------- 0 1.0 7.0 9 10
- 0.167782 5 7 cbr 210 ------- 0 1.0 7.0 9 10
r 0.16793 1 2 cbr 210 ------- 0 1.0 7.0 15 17
+ 0.16793 2 3 cbr 210 ------- 0 1.0 7.0 15 17
- 0.16793 2 3 cbr 210 ------- 0 1.0 7.0 15 17
r 0.168212 5 7 cbr 210 ------- 0 1.0 7.0 6 7
r 0.171102 2 3 cbr 210 ------- 0 1.0 7.0 13 15
+ 0.171102 3 5 cbr 210 ------- 0 1.0 7.0 13 15
- 0.171102 3 5 cbr 210 ------- 0 1.0 7.0 13 15
+ 0.17125 1 2 cbr 210 ------- 0 1.0 7.0 19 21
- 0.17125 1 2 cbr 210 ------- 0 1.0 7.0 19 21
r 0.171532 3 5 cbr 210 ------- 0 1.0 7.0 10 11
+ 0.171532 5 7 cbr 210 ------- 0 1.0 7.0 10 11
- 0.171532 5 7 cbr 210 ------- 0 1.0 7.0 10 11
r 0.17168 1 2 cbr 210 ------- 0 1.0 7.0 16 18
+ 0.17168 2 3 cbr 210 ------- 0 1.0 7.0 16 18
- 0.17168 2 3 cbr 210 ------- 0 1.0 7.0 16 18
r 0.171856 3 2 ack 40 ------- 0 6.0 0.0 0 12
+ 0.171856 2 0 ack 40 ------- 0 6.0 0.0 0 12
- 0.171856 2 0 ack 40 ------- 0 6.0 0.0 0 12
r 0.171962 5 7 cbr 210 ------- 0 1.0 7.0 7 8
r 0.174852 2 3 cbr 210 ------- 0 1.0 7.0 14 16
+ 0.174852 3 5 cbr 210 ------- 0 1.0 7.0 14 16
- 0.174852 3 5 cbr 210 ------- 0 1.0 7.0 14 16
+ 0.175 1 2 cbr 210 ------- 0 1.0 7.0 20 22
- 0.175 1 2 cbr 210 ------- 0 1.0 7.0 20 22
r 0.175282 3 5 cbr 210 ------- 0 1.0 7.0 11 13
+ 0.175282 5 7 cbr 210 ------- 0 1.0 7.0 11 13
- 0.175282 5 7 cbr 210 ------- 0 1.0 7.0 11 13
r 0.17543 1 2 cbr 210 ------- 0 1.0 7.0 17 19
+ 0.17543 2 3 cbr 210 ------- 0 1.0 7.0 17 19
- 0.17543 2 3 cbr 210 ------- 0 1.0 7.0 17 19
r 0.175712 5 7 cbr 210 ------- 0 1.0 7.0 8 9
r 0.178602 2 3 cbr 210 ------- 0 1.0 7.0 15 17
+ 0.178602 3 5 cbr 210 ------- 0 1.0 7.0 15 17
- 0.178602 3 5 cbr 210 ------- 0 1.0 7.0 15 17
+ 0.17875 1 2 cbr 210 ------- 0 1.0 7.0 21 23
- 0.17875 1 2 cbr 210 ------- 0 1.0 7.0 21 23
r 0.179032 3 5 cbr 210 ------- 0 1.0 7.0 12 14
+ 0.179032 5 7 cbr 210 ------- 0 1.0 7.0 12 14
- 0.179032 5 7 cbr 210 ------- 0 1.0 7.0 12 14
r 0.17918 1 2 cbr 210 ------- 0 1.0 7.0 18 20
+ 0.17918 2 3 cbr 210 ------- 0 1.0 7.0 18 20
- 0.17918 2 3 cbr 210 ------- 0 1.0 7.0 18 20
r 0.179462 5 7 cbr 210 ------- 0 1.0 7.0 9 10
r 0.182176 2 0 ack 40 ------- 0 6.0 0.0 0 12
+ 0.182176 0 2 tcp 1040 ------- 0 0.0 6.0 1 24
- 0.182176 0 2 tcp 1040 ------- 0 0.0 6.0 1 24
+ 0.182176 0 2 tcp 1040 ------- 0 0.0 6.0 2 25
r 0.182352 2 3 cbr 210 ------- 0 1.0 7.0 16 18
+ 0.182352 3 5 cbr 210 ------- 0 1.0 7.0 16 18
- 0.182352 3 5 cbr 210 ------- 0 1.0 7.0 16 18
+ 0.1825 1 2 cbr 210 ------- 0 1.0 7.0 22 26
- 0.1825 1 2 cbr 210 ------- 0 1.0 7.0 22 26
r 0.182782 3 5 cbr 210 ------- 0 1.0 7.0 13 15
+ 0.182782 5 7 cbr 210 ------- 0 1.0 7.0 13 15
- 0.182782 5 7 cbr 210 ------- 0 1.0 7.0 13 15
r 0.18293 1 2 cbr 210 ------- 0 1.0 7.0 19 21
+ 0.18293 2 3 cbr 210 ------- 0 1.0 7.0 19 21
- 0.18293 2 3 cbr 210 ------- 0 1.0 7.0 19 21
r 0.183212 5 7 cbr 210 ------- 0 1.0 7.0 10 11
r 0.186102 2 3 cbr 210 ------- 0 1.0 7.0 17 19
+ 0.186102 3 5 cbr 210 ------- 0 1.0 7.0 17 19
- 0.186102 3 5 cbr 210 ------- 0 1.0 7.0 17 19
+ 0.18625 1 2 cbr 210 ------- 0 1.0 7.0 23 27
- 0.18625 1 2 cbr 210 ------- 0 1.0 7.0 23 27
r 0.186532 3 5 cbr 210 ------- 0 1.0 7.0 14 16
+ 0.186532 5 7 cbr 210 ------- 0 1.0 7.0 14 16
- 0.186532 5 7 cbr 210 ------- 0 1.0 7.0 14 16
r 0.18668 1 2 cbr 210 ------- 0 1.0 7.0 20 22
+ 0.18668 2 3 cbr 210 ------- 0 1.0 7.0 20 22
- 0.18668 2 3 cbr 210 ------- 0 1.0 7.0 20 22
r 0.186962 5 7 cbr 210 ------- 0 1.0 7.0 11 13
r 0.189852 2 3 cbr 210 ------- 0 1.0 7.0 18 20
+ 0.189852 3 5 cbr 210 ------- 0 1.0 7.0 18 20
- 0.189852 3 5 cbr 210 ------- 0 1.0 7.0 18 20
+ 0.19 1 2 cbr 210 ------- 0 1.0 7.0 24 28
- 0.19 1 2 cbr 210 ------- 0 1.0 7.0 24 28
r 0.190282 3 5 cbr 210 ------- 0 1.0 7.0 15 17
+ 0.190282 5 7 cbr 210 ------- 0 1.0 7.0 15 17
- 0.190282 5 7 cbr 210 ------- 0 1.0 7.0 15 17
r 0.19043 1 2 cbr 210 ------- 0 1.0 7.0 21 23
+ 0.19043 2 3 cbr 210 ------- 0 1.0 7.0 21 23
- 0.19043 2 3 cbr 210 ------- 0 1.0 7.0 21 23
- 0.190496 0 2 tcp 1040 ------- 0 0.0 6.0 2 25
r 0.190712 5 7 cbr 210 ------- 0 1.0 7.0 12 14
r 0.193602 2 3 cbr 210 ------- 0 1.0 7.0 19 21
+ 0.193602 3 5 cbr 210 ------- 0 1.0 7.0 19 21
- 0.193602 3 5 cbr 210 ------- 0 1.0 7.0 19 21
+ 0.19375 1 2 cbr 210 ------- 0 1.0 7.0 25 29
- 0.19375 1 2 cbr 210 ------- 0 1.0 7.0 25 29
r 0.194032 3 5 cbr 210 ------- 0 1.0 7.0 16 18
+ 0.194032 5 7 cbr 210 ------- 0 1.0 7.0 16 18
- 0.194032 5 7 cbr 210 ------- 0 1.0 7.0 16 18
r 0.19418 1 2 cbr 210 ------- 0 1.0 7.0 22 26
+ 0.19418 2 3 cbr 210 ------- 0 1.0 7.0 22 26
- 0.19418 2 3 cbr 210 ------- 0 1.0 7.0 22 26
r 0.194462 5 7 cbr 210 ------- 0 1.0 7.0 13 15
r 0.197352 2 3 cbr 210 ------- 0 1.0 7.0 20 22
+ 0.197352 3 5 cbr 210 ------- 0 1.0 7.0 20 22
- 0.197352 3 5 cbr 210 ------- 0 1.0 7.0 20 22
+ 0.1975 1 2 cbr 210 ------- 0 1.0 7.0 26 30
- 0.1975 1 2 cbr 210 ------- 0 1.0 7.0 26 30
r 0.197782 3 5 cbr 210 ------- 0 1.0 7.0 17 19
+ 0.197782 5 7 cbr 210 ------- 0 1.0 7.0 17 19
- 0.197782 5 7 cbr 210 ------- 0 1.0 7.0 17 19
r 0.19793 1 2 cbr 210 ------- 0 1.0 7.0 23 27
+ 0.19793 2 3 cbr 210 ------- 0 1.0 7.0 23 27
- 0.19793 2 3 cbr 210 ------- 0 1.0 7.0 23 27
r 0.198212 5 7 cbr 210 ------- 0 1.0 7.0 14 16
r 0.200496 0 2 tcp 1040 ------- 0 0.0 6.0 1 24
+ 0.200496 2 3 tcp 1040 ------- 0 0.0 6.0 1 24
- 0.200496 2 3 tcp 1040 ------- 0 0.0 6.0 1 24
r 0.201102 2 3 cbr 210 ------- 0 1.0 7.0 21 23
+ 0.201102 3 5 cbr 210 ------- 0 1.0 7.0 21 23
- 0.201102 3 5 cbr 210 ------- 0 1.0 7.0 21 23
+ 0.20125 1 2 cbr 210 ------- 0 1.0 7.0 27 31
- 0.20125 1 2 cbr 210 ------- 0 1.0 7.0 27 31
r 0.201532 3 5 cbr 210 ------- 0 1.0 7.0 18 20
+ 0.201532 5 7 cbr 210 ------- 0 1.0 7.0 18 20
- 0.201532 5 7 cbr 210 ------- 0 1.0 7.0 18 20
r 0.20168 1 2 cbr 210 ------- 0 1.0 7.0 24 28
+ 0.20168 2 3 cbr 210 ------- 0 1.0 7.0 24 28
r 0.201962 5 7 cbr 210 ------- 0 1.0 7.0 15 17
- 0.203824 2 3 cbr 210 ------- 0 1.0 7.0 24 28
r 0.204852 2 3 cbr 210 ------- 0 1.0 7.0 22 26
+ 0.204852 3 5 cbr 210 ------- 0 1.0 7.0 22 26
- 0.204852 3 5 cbr 210 ------- 0 1.0 7.0 22 26
+ 0.205 1 2 cbr 210 ------- 0 1.0 7.0 28 32
- 0.205 1 2 cbr 210 ------- 0 1.0 7.0 28 32
r 0.205282 3 5 cbr 210 ------- 0 1.0 7.0 19 21
+ 0.205282 5 7 cbr 210 ------- 0 1.0 7.0 19 21
- 0.205282 5 7 cbr 210 ------- 0 1.0 7.0 19 21
r 0.20543 1 2 cbr 210 ------- 0 1.0 7.0 25 29
+ 0.20543 2 3 cbr 210 ------- 0 1.0 7.0 25 29
- 0.20543 2 3 cbr 210 ------- 0 1.0 7.0 25 29
r 0.205712 5 7 cbr 210 ------- 0 1.0 7.0 16 18
r 0.208602 2 3 cbr 210 ------- 0 1.0 7.0 23 27
+ 0.208602 3 5 cbr 210 ------- 0 1.0 7.0 23 27
- 0.208602 3 5 cbr 210 ------- 0 1.0 7.0 23 27
+ 0.20875 1 2 cbr 210 ------- 0 1.0 7.0 29 33
- 0.20875 1 2 cbr 210 ------- 0 1.0 7.0 29 33
r 0.208816 0 2 tcp 1040 ------- 0 0.0 6.0 2 25
+ 0.208816 2 3 tcp 1040 ------- 0 0.0 6.0 2 25
- 0.208816 2 3 tcp 1040 ------- 0 0.0 6.0 2 25
r 0.209032 3 5 cbr 210 ------- 0 1.0 7.0 20 22
+ 0.209032 5 7 cbr 210 ------- 0 1.0 7.0 20 22
- 0.209032 5 7 cbr 210 ------- 0 1.0 7.0 20 22
r 0.20918 1 2 cbr 210 ------- 0 1.0 7.0 26 30
+ 0.20918 2 3 cbr 210 ------- 0 1.0 7.0 26 30
r 0.209462 5 7 cbr 210 ------- 0 1.0 7.0 17 19
- 0.212144 2 3 cbr 210 ------- 0 1.0 7.0 26 30
+ 0.2125 1 2 cbr 210 ------- 0 1.0 7.0 30 34
- 0.2125 1 2 cbr 210 ------- 0 1.0 7.0 30 34
r 0.212782 3 5 cbr 210 ------- 0 1.0 7.0 21 23
+ 0.212782 5 7 cbr 210 ------- 0 1.0 7.0 21 23
- 0.212782 5 7 cbr 210 ------- 0 1.0 7.0 21 23
r 0.21293 1 2 cbr 210 ------- 0 1.0 7.0 27 31
+ 0.21293 2 3 cbr 210 ------- 0 1.0 7.0 27 31
- 0.21293 2 3 cbr 210 ------- 0 1.0 7.0 27 31
r 0.213212 5 7 cbr 210 ------- 0 1.0 7.0 18 20
r 0.213824 2 3 tcp 1040 ------- 0 0.0 6.0 1 24
+ 0.213824 3 4 tcp 1040 ------- 0 0.0 6.0 1 24
- 0.213824 3 4 tcp 1040 ------- 0 0.0 6.0 1 24
r 0.214496 2 3 cbr 210 ------- 0 1.0 7.0 24 28
+ 0.214496 3 5 cbr 210 ------- 0 1.0 7.0 24 28
- 0.214496 3 5 cbr 210 ------- 0 1.0 7.0 24 28
r 0.216102 2 3 cbr 210 ------- 0 1.0 7.0 25 29
+ 0.216102 3 5 cbr 210 ------- 0 1.0 7.0 25 29
- 0.216176 3 5 cbr 210 ------- 0 1.0 7.0 25 29
+ 0.21625 1 2 cbr 210 ------- 0 1.0 7.0 31 35
- 0.21625 1 2 cbr 210 ------- 0 1.0 7.0 31 35
r 0.216532 3 5 cbr 210 ------- 0 1.0 7.0 22 26
+ 0.216532 5 7 cbr 210 ------- 0 1.0 7.0 22 26
- 0.216532 5 7 cbr 210 ------- 0 1.0 7.0 22 26
r 0.21668 1 2 cbr 210 ------- 0 1.0 7.0 28 32
+ 0.21668 2 3 cbr 210 ------- 0 1.0 7.0 28 32
- 0.21668 2 3 cbr 210 ------- 0 1.0 7.0 28 32
r 0.216962 5 7 cbr 210 ------- 0 1.0 7.0 19 21
+ 0.22 1 2 cbr 210 ------- 0 1.0 7.0 32 36
- 0.22 1 2 cbr 210 ------- 0 1.0 7.0 32 36
r 0.220282 3 5 cbr 210 ------- 0 1.0 7.0 23 27
+ 0.220282 5 7 cbr 210 ------- 0 1.0 7.0 23 27
- 0.220282 5 7 cbr 210 ------- 0 1.0 7.0 23 27
r 0.22043 1 2 cbr 210 ------- 0 1.0 7.0 29 33
+ 0.22043 2 3 cbr 210 ------- 0 1.0 7.0 29 33
- 0.22043 2 3 cbr 210 ------- 0 1.0 7.0 29 33
r 0.220712 5 7 cbr 210 ------- 0 1.0 7.0 20 22
r 0.222144 2 3 tcp 1040 ------- 0 0.0 6.0 2 25
+ 0.222144 3 4 tcp 1040 ------- 0 0.0 6.0 2 25
- 0.222144 3 4 tcp 1040 ------- 0 0.0 6.0 2 25
r 0.222816 2 3 cbr 210 ------- 0 1.0 7.0 26 30
+ 0.222816 3 5 cbr 210 ------- 0 1.0 7.0 26 30
- 0.222816 3 5 cbr 210 ------- 0 1.0 7.0 26 30
r 0.223602 2 3 cbr 210 ------- 0 1.0 7.0 27 31
+ 0.223602 3 5 cbr 210 ------- 0 1.0 7.0 27 31
+ 0.22375 1 2 cbr 210 ------- 0 1.0 7.0 33 37
- 0.22375 1 2 cbr 210 ------- 0 1.0 7.0 33 37
r 0.22418 1 2 cbr 210 ------- 0 1.0 7.0 30 34
+ 0.22418 2 3 cbr 210 ------- 0 1.0 7.0 30 34
- 0.22418 2 3 cbr 210 ------- 0 1.0 7.0 30 34
r 0.224462 5 7 cbr 210 ------- 0 1.0 7.0 21 23
- 0.224496 3 5 cbr 210 ------- 0 1.0 7.0 27 31
r 0.226176 3 5 cbr 210 ------- 0 1.0 7.0 24 28
+ 0.226176 5 7 cbr 210 ------- 0 1.0 7.0 24 28
- 0.226176 5 7 cbr 210 ------- 0 1.0 7.0 24 28
r 0.227352 2 3 cbr 210 ------- 0 1.0 7.0 28 32
+ 0.227352 3 5 cbr 210 ------- 0 1.0 7.0 28 32
- 0.227352 3 5 cbr 210 ------- 0 1.0 7.0 28 32
+ 0.2275 1 2 cbr 210 ------- 0 1.0 7.0 34 38
- 0.2275 1 2 cbr 210 ------- 0 1.0 7.0 34 38
r 0.227856 3 5 cbr 210 ------- 0 1.0 7.0 25 29
+ 0.227856 5 7 cbr 210 ------- 0 1.0 7.0 25 29
- 0.227856 5 7 cbr 210 ------- 0 1.0 7.0 25 29
r 0.22793 1 2 cbr 210 ------- 0 1.0 7.0 31 35
+ 0.22793 2 3 cbr 210 ------- 0 1.0 7.0 31 35
- 0.22793 2 3 cbr 210 ------- 0 1.0 7.0 31 35
r 0.228212 5 7 cbr 210 ------- 0 1.0 7.0 22 26
r 0.231102 2 3 cbr 210 ------- 0 1.0 7.0 29 33
+ 0.231102 3 5 cbr 210 ------- 0 1.0 7.0 29 33
- 0.231102 3 5 cbr 210 ------- 0 1.0 7.0 29 33
+ 0.23125 1 2 cbr 210 ------- 0 1.0 7.0 35 39
- 0.23125 1 2 cbr 210 ------- 0 1.0 7.0 35 39
r 0.23168 1 2 cbr 210 ------- 0 1.0 7.0 32 36
+ 0.23168 2 3 cbr 210 ------- 0 1.0 7.0 32 36
- 0.23168 2 3 cbr 210 ------- 0 1.0 7.0 32 36
r 0.231962 5 7 cbr 210 ------- 0 1.0 7.0 23 27
r 0.232144 3 4 tcp 1040 ------- 0 0.0 6.0 1 24
+ 0.232144 4 6 tcp 1040 ------- 0 0.0 6.0 1 24
- 0.232144 4 6 tcp 1040 ------- 0 0.0 6.0 1 24
r 0.234496 3 5 cbr 210 ------- 0 1.0 7.0 26 30
+ 0.234496 5 7 cbr 210 ------- 0 1.0 7.0 26 30
- 0.234496 5 7 cbr 210 ------- 0 1.0 7.0 26 30
r 0.234852 2 3 cbr 210 ------- 0 1.0 7.0 30 34
+ 0.234852 3 5 cbr 210 ------- 0 1.0 7.0 30 34
- 0.234852 3 5 cbr 210 ------- 0 1.0 7.0 30 34
+ 0.235 1 2 cbr 210 ------- 0 1.0 7.0 36 40
- 0.235 1 2 cbr 210 ------- 0 1.0 7.0 36 40
r 0.23543 1 2 cbr 210 ------- 0 1.0 7.0 33 37
+ 0.23543 2 3 cbr 210 ------- 0 1.0 7.0 33 37
- 0.23543 2 3 cbr 210 ------- 0 1.0 7.0 33 37
r 0.236176 3 5 cbr 210 ------- 0 1.0 7.0 27 31
+ 0.236176 5 7 cbr 210 ------- 0 1.0 7.0 27 31
- 0.236176 5 7 cbr 210 ------- 0 1.0 7.0 27 31
r 0.237856 5 7 cbr 210 ------- 0 1.0 7.0 24 28
r 0.238602 2 3 cbr 210 ------- 0 1.0 7.0 31 35
+ 0.238602 3 5 cbr 210 ------- 0 1.0 7.0 31 35
- 0.238602 3 5 cbr 210 ------- 0 1.0 7.0 31 35
+ 0.23875 1 2 cbr 210 ------- 0 1.0 7.0 37 41
- 0.23875 1 2 cbr 210 ------- 0 1.0 7.0 37 41
r 0.239032 3 5 cbr 210 ------- 0 1.0 7.0 28 32
+ 0.239032 5 7 cbr 210 ------- 0 1.0 7.0 28 32
- 0.239032 5 7 cbr 210 ------- 0 1.0 7.0 28 32
r 0.23918 1 2 cbr 210 ------- 0 1.0 7.0 34 38
+ 0.23918 2 3 cbr 210 ------- 0 1.0 7.0 34 38
- 0.23918 2 3 cbr 210 ------- 0 1.0 7.0 34 38
r 0.239536 5 7 cbr 210 ------- 0 1.0 7.0 25 29
r 0.240464 3 4 tcp 1040 ------- 0 0.0 6.0 2 25
+ 0.240464 4 6 tcp 1040 ------- 0 0.0 6.0 2 25
- 0.240464 4 6 tcp 1040 ------- 0 0.0 6.0 2 25
r 0.242352 2 3 cbr 210 ------- 0 1.0 7.0 32 36
+ 0.242352 3 5 cbr 210 ------- 0 1.0 7.0 32 36
- 0.242352 3 5 cbr 210 ------- 0 1.0 7.0 32 36
+ 0.2425 1 2 cbr 210 ------- 0 1.0 7.0 38 42
- 0.2425 1 2 cbr 210 ------- 0 1.0 7.0 38 42
r 0.242782 3 5 cbr 210 ------- 0 1.0 7.0 29 33
+ 0.242782 5 7 cbr 210 ------- 0 1.0 7.0 29 33
- 0.242782 5 7 cbr 210 ------- 0 1.0 7.0 29 33
r 0.24293 1 2 cbr 210 ------- 0 1.0 7.0 35 39
+ 0.24293 2 3 cbr 210 ------- 0 1.0 7.0 35 39
- 0.24293 2 3 cbr 210 ------- 0 1.0 7.0 35 39
r 0.246102 2 3 cbr 210 ------- 0 1.0 7.0 33 37
+ 0.246102 3 5 cbr 210 ------- 0 1.0 7.0 33 37
- 0.246102 3 5 cbr 210 ------- 0 1.0 7.0 33 37
r 0.246176 5 7 cbr 210 ------- 0 1.0 7.0 26 30
+ 0.24625 1 2 cbr 210 ------- 0 1.0 7.0 39 43
- 0.24625 1 2 cbr 210 ------- 0 1.0 7.0 39 43
r 0.246532 3 5 cbr 210 ------- 0 1.0 7.0 30 34
+ 0.246532 5 7 cbr 210 ------- 0 1.0 7.0 30 34
- 0.246532 5 7 cbr 210 ------- 0 1.0 7.0 30 34
r 0.24668 1 2 cbr 210 ------- 0 1.0 7.0 36 40
+ 0.24668 2 3 cbr 210 ------- 0 1.0 7.0 36 40
- 0.24668 2 3 cbr 210 ------- 0 1.0 7.0 36 40
r 0.247856 5 7 cbr 210 ------- 0 1.0 7.0 27 31
r 0.249852 2 3 cbr 210 ------- 0 1.0 7.0 34 38
+ 0.249852 3 5 cbr 210 ------- 0 1.0 7.0 34 38
- 0.249852 3 5 cbr 210 ------- 0 1.0 7.0 34 38
+ 0.25 1 2 cbr 210 ------- 0 1.0 7.0 40 44
- 0.25 1 2 cbr 210 ------- 0 1.0 7.0 40 44
r 0.250282 3 5 cbr 210 ------- 0 1.0 7.0 31 35
+ 0.250282 5 7 cbr 210 ------- 0 1.0 7.0 31 35
- 0.250282 5 7 cbr 210 ------- 0 1.0 7.0 31 35
r 0.25043 1 2 cbr 210 ------- 0 1.0 7.0 37 41
+ 0.25043 2 3 cbr 210 ------- 0 1.0 7.0 37 41
- 0.25043 2 3 cbr 210 ------- 0 1.0 7.0 37 41
r 0.250464 4 6 tcp 1040 ------- 0 0.0 6.0 1 24
+ 0.250464 6 4 ack 40 ------- 0 6.0 0.0 1 45
- 0.250464 6 4 ack 40 ------- 0 6.0 0.0 1 45
r 0.250712 5 7 cbr 210 ------- 0 1.0 7.0 28 32
r 0.253602 2 3 cbr 210 ------- 0 1.0 7.0 35 39
+ 0.253602 3 5 cbr 210 ------- 0 1.0 7.0 35 39
- 0.253602 3 5 cbr 210 ------- 0 1.0 7.0 35 39
+ 0.25375 1 2 cbr 210 ------- 0 1.0 7.0 41 46
- 0.25375 1 2 cbr 210 ------- 0 1.0 7.0 41 46
r 0.254032 3 5 cbr 210 ------- 0 1.0 7.0 32 36
+ 0.254032 5 7 cbr 210 ------- 0 1.0 7.0 32 36
- 0.254032 5 7 cbr 210 ------- 0 1.0 7.0 32 36
r 0.25418 1 2 cbr 210 ------- 0 1.0 7.0 38 42
+ 0.25418 2 3 cbr 210 ------- 0 1.0 7.0 38 42
- 0.25418 2 3 cbr 210 ------- 0 1.0 7.0 38 42
r 0.254462 5 7 cbr 210 ------- 0 1.0 7.0 29 33
r 0.257352 2 3 cbr 210 ------- 0 1.0 7.0 36 40
+ 0.257352 3 5 cbr 210 ------- 0 1.0 7.0 36 40
- 0.257352 3 5 cbr 210 ------- 0 1.0 7.0 36 40
+ 0.2575 1 2 cbr 210 ------- 0 1.0 7.0 42 47
- 0.2575 1 2 cbr 210 ------- 0 1.0 7.0 42 47
r 0.257782 3 5 cbr 210 ------- 0 1.0 7.0 33 37
+ 0.257782 5 7 cbr 210 ------- 0 1.0 7.0 33 37
- 0.257782 5 7 cbr 210 ------- 0 1.0 7.0 33 37
r 0.25793 1 2 cbr 210 ------- 0 1.0 7.0 39 43
+ 0.25793 2 3 cbr 210 ------- 0 1.0 7.0 39 43
- 0.25793 2 3 cbr 210 ------- 0 1.0 7.0 39 43
r 0.258212 5 7 cbr 210 ------- 0 1.0 7.0 30 34
r 0.258784 4 6 tcp 1040 ------- 0 0.0 6.0 2 25
+ 0.258784 6 4 ack 40 ------- 0 6.0 0.0 2 48
- 0.258784 6 4 ack 40 ------- 0 6.0 0.0 2 48
r 0.260784 6 4 ack 40 ------- 0 6.0 0.0 1 45
+ 0.260784 4 3 ack 40 ------- 0 6.0 0.0 1 45
- 0.260784 4 3 ack 40 ------- 0 6.0 0.0 1 45
r 0.261102 2 3 cbr 210 ------- 0 1.0 7.0 37 41
+ 0.261102 3 5 cbr 210 ------- 0 1.0 7.0 37 41
- 0.261102 3 5 cbr 210 ------- 0 1.0 7.0 37 41
+ 0.26125 1 2 cbr 210 ------- 0 1.0 7.0 43 49
- 0.26125 1 2 cbr 210 ------- 0 1.0 7.0 43 49
r 0.261532 3 5 cbr 210 ------- 0 1.0 7.0 34 38
+ 0.261532 5 7 cbr 210 ------- 0 1.0 7.0 34 38
- 0.261532 5 7 cbr 210 ------- 0 1.0 7.0 34 38
r 0.26168 1 2 cbr 210 ------- 0 1.0 7.0 40 44
+ 0.26168 2 3 cbr 210 ------- 0 1.0 7.0 40 44
- 0.26168 2 3 cbr 210 ------- 0 1.0 7.0 40 44
r 0.261962 5 7 cbr 210 ------- 0 1.0 7.0 31 35
r 0.264852 2 3 cbr 210 ------- 0 1.0 7.0 38 42
+ 0.264852 3 5 cbr 210 ------- 0 1.0 7.0 38 42
- 0.264852 3 5 cbr 210 ------- 0 1.0 7.0 38 42
+ 0.265 1 2 cbr 210 ------- 0 1.0 7.0 44 50
- 0.265 1 2 cbr 210 ------- 0 1.0 7.0 44 50
r 0.265282 3 5 cbr 210 ------- 0 1.0 7.0 35 39
+ 0.265282 5 7 cbr 210 ------- 0 1.0 7.0 35 39
- 0.265282 5 7 cbr 210 ------- 0 1.0 7.0 35 39
r 0.26543 1 2 cbr 210 ------- 0 1.0 7.0 41 46
+ 0.26543 2 3 cbr 210 ------- 0 1.0 7.0 41 46
- 0.26543 2 3 cbr 210 ------- 0 1.0 7.0 41 46
r 0.265712 5 7 cbr 210 ------- 0 1.0 7.0 32 36
r 0.268602 2 3 cbr 210 ------- 0 1.0 7.0 39 43
+ 0.268602 3 5 cbr 210 ------- 0 1.0 7.0 39 43
- 0.268602 3 5 cbr 210 ------- 0 1.0 7.0 39 43
+ 0.26875 1 2 cbr 210 ------- 0 1.0 7.0 45 51
- 0.26875 1 2 cbr 210 ------- 0 1.0 7.0 45 51
r 0.269032 3 5 cbr 210 ------- 0 1.0 7.0 36 40
+ 0.269032 5 7 cbr 210 ------- 0 1.0 7.0 36 40
- 0.269032 5 7 cbr 210 ------- 0 1.0 7.0 36 40
r 0.269104 6 4 ack 40 ------- 0 6.0 0.0 2 48
+ 0.269104 4 3 ack 40 ------- 0 6.0 0.0 2 48
- 0.269104 4 3 ack 40 ------- 0 6.0 0.0 2 48
r 0.26918 1 2 cbr 210 ------- 0 1.0 7.0 42 47
+ 0.26918 2 3 cbr 210 ------- 0 1.0 7.0 42 47
- 0.26918 2 3 cbr 210 ------- 0 1.0 7.0 42 47
r 0.269462 5 7 cbr 210 ------- 0 1.0 7.0 33 37
r 0.271104 4 3 ack 40 ------- 0 6.0 0.0 1 45
+ 0.271104 3 2 ack 40 ------- 0 6.0 0.0 1 45
- 0.271104 3 2 ack 40 ------- 0 6.0 0.0 1 45
r 0.272352 2 3 cbr 210 ------- 0 1.0 7.0 40 44
+ 0.272352 3 5 cbr 210 ------- 0 1.0 7.0 40 44
- 0.272352 3 5 cbr 210 ------- 0 1.0 7.0 40 44
+ 0.2725 1 2 cbr 210 ------- 0 1.0 7.0 46 52
- 0.2725 1 2 cbr 210 ------- 0 1.0 7.0 46 52
r 0.272782 3 5 cbr 210 ------- 0 1.0 7.0 37 41
+ 0.272782 5 7 cbr 210 ------- 0 1.0 7.0 37 41
- 0.272782 5 7 cbr 210 ------- 0 1.0 7.0 37 41
r 0.27293 1 2 cbr 210 ------- 0 1.0 7.0 43 49
+ 0.27293 2 3 cbr 210 ------- 0 1.0 7.0 43 49
- 0.27293 2 3 cbr 210 ------- 0 1.0 7.0 43 49
r 0.273212 5 7 cbr 210 ------- 0 1.0 7.0 34 38
r 0.276102 2 3 cbr 210 ------- 0 1.0 7.0 41 46
+ 0.276102 3 5 cbr 210 ------- 0 1.0 7.0 41 46
- 0.276102 3 5 cbr 210 ------- 0 1.0 7.0 41 46
+ 0.27625 1 2 cbr 210 ------- 0 1.0 7.0 47 53
- 0.27625 1 2 cbr 210 ------- 0 1.0 7.0 47 53
r 0.276532 3 5 cbr 210 ------- 0 1.0 7.0 38 42
+ 0.276532 5 7 cbr 210 ------- 0 1.0 7.0 38 42
- 0.276532 5 7 cbr 210 ------- 0 1.0 7.0 38 42
r 0.27668 1 2 cbr 210 ------- 0 1.0 7.0 44 50
+ 0.27668 2 3 cbr 210 ------- 0 1.0 7.0 44 50
- 0.27668 2 3 cbr 210 ------- 0 1.0 7.0 44 50
r 0.276962 5 7 cbr 210 ------- 0 1.0 7.0 35 39
r 0.279424 4 3 ack 40 ------- 0 6.0 0.0 2 48
+ 0.279424 3 2 ack 40 ------- 0 6.0 0.0 2 48
- 0.279424 3 2 ack 40 ------- 0 6.0 0.0 2 48
r 0.279852 2 3 cbr 210 ------- 0 1.0 7.0 42 47
+ 0.279852 3 5 cbr 210 ------- 0 1.0 7.0 42 47
- 0.279852 3 5 cbr 210 ------- 0 1.0 7.0 42 47
+ 0.28 1 2 cbr 210 ------- 0 1.0 7.0 48 54
- 0.28 1 2 cbr 210 ------- 0 1.0 7.0 48 54
r 0.280282 3 5 cbr 210 ------- 0 1.0 7.0 39 43
+ 0.280282 5 7 cbr 210 ------- 0 1.0 7.0 39 43
- 0.280282 5 7 cbr 210 ------- 0 1.0 7.0 39 43
r 0.28043 1 2 cbr 210 ------- 0 1.0 7.0 45 51
+ 0.28043 2 3 cbr 210 ------- 0 1.0 7.0 45 51
- 0.28043 2 3 cbr 210 ------- 0 1.0 7.0 45 51
r 0.280712 5 7 cbr 210 ------- 0 1.0 7.0 36 40
r 0.281232 3 2 ack 40 ------- 0 6.0 0.0 1 45
+ 0.281232 2 0 ack 40 ------- 0 6.0 0.0 1 45
- 0.281232 2 0 ack 40 ------- 0 6.0 0.0 1 45
r 0.283602 2 3 cbr 210 ------- 0 1.0 7.0 43 49
+ 0.283602 3 5 cbr 210 ------- 0 1.0 7.0 43 49
- 0.283602 3 5 cbr 210 ------- 0 1.0 7.0 43 49
+ 0.28375 1 2 cbr 210 ------- 0 1.0 7.0 49 55
- 0.28375 1 2 cbr 210 ------- 0 1.0 7.0 49 55
r 0.284032 3 5 cbr 210 ------- 0 1.0 7.0 40 44
+ 0.284032 5 7 cbr 210 ------- 0 1.0 7.0 40 44
- 0.284032 5 7 cbr 210 ------- 0 1.0 7.0 40 44
r 0.28418 1 2 cbr 210 ------- 0 1.0 7.0 46 52
+ 0.28418 2 3 cbr 210 ------- 0 1.0 7.0 46 52
- 0.28418 2 3 cbr 210 ------- 0 1.0 7.0 46 52
r 0.284462 5 7 cbr 210 ------- 0 1.0 7.0 37 41
r 0.287352 2 3 cbr 210 ------- 0 1.0 7.0 44 50
+ 0.287352 3 5 cbr 210 ------- 0 1.0 7.0 44 50
- 0.287352 3 5 cbr 210 ------- 0 1.0 7.0 44 50
+ 0.2875 1 2 cbr 210 ------- 0 1.0 7.0 50 56
- 0.2875 1 2 cbr 210 ------- 0 1.0 7.0 50 56
r 0.287782 3 5 cbr 210 ------- 0 1.0 7.0 41 46
+ 0.287782 5 7 cbr 210 ------- 0 1.0 7.0 41 46
- 0.287782 5 7 cbr 210 ------- 0 1.0 7.0 41 46
r 0.28793 1 2 cbr 210 ------- 0 1.0 7.0 47 53
+ 0.28793 2 3 cbr 210 ------- 0 1.0 7.0 47 53
- 0.28793 2 3 cbr 210 ------- 0 1.0 7.0 47 53
r 0.288212 5 7 cbr 210 ------- 0 1.0 7.0 38 42
r 0.289552 3 2 ack 40 ------- 0 6.0 0.0 2 48
+ 0.289552 2 0 ack 40 ------- 0 6.0 0.0 2 48
- 0.289552 2 0 ack 40 ------- 0 6.0 0.0 2 48
r 0.291102 2 3 cbr 210 ------- 0 1.0 7.0 45 51
+ 0.291102 3 5 cbr 210 ------- 0 1.0 7.0 45 51
- 0.291102 3 5 cbr 210 ------- 0 1.0 7.0 45 51
+ 0.29125 1 2 cbr 210 ------- 0 1.0 7.0 51 57
- 0.29125 1 2 cbr 210 ------- 0 1.0 7.0 51 57
r 0.291532 3 5 cbr 210 ------- 0 1.0 7.0 42 47
+ 0.291532 5 7 cbr 210 ------- 0 1.0 7.0 42 47
- 0.291532 5 7 cbr 210 ------- 0 1.0 7.0 42 47
r 0.291552 2 0 ack 40 ------- 0 6.0 0.0 1 45
+ 0.291552 0 2 tcp 1040 ------- 0 0.0 6.0 3 58
- 0.291552 0 2 tcp 1040 ------- 0 0.0 6.0 3 58
+ 0.291552 0 2 tcp 1040 ------- 0 0.0 6.0 4 59
r 0.29168 1 2 cbr 210 ------- 0 1.0 7.0 48 54
+ 0.29168 2 3 cbr 210 ------- 0 1.0 7.0 48 54
- 0.29168 2 3 cbr 210 ------- 0 1.0 7.0 48 54
r 0.291962 5 7 cbr 210 ------- 0 1.0 7.0 39 43
r 0.294852 2 3 cbr 210 ------- 0 1.0 7.0 46 52
+ 0.294852 3 5 cbr 210 ------- 0 1.0 7.0 46 52
- 0.294852 3 5 cbr 210 ------- 0 1.0 7.0 46 52
+ 0.295 1 2 cbr 210 ------- 0 1.0 7.0 52 60
- 0.295 1 2 cbr 210 ------- 0 1.0 7.0 52 60
r 0.295282 3 5 cbr 210 ------- 0 1.0 7.0 43 49
+ 0.295282 5 7 cbr 210 ------- 0 1.0 7.0 43 49
- 0.295282 5 7 cbr 210 ------- 0 1.0 7.0 43 49
r 0.29543 1 2 cbr 210 ------- 0 1.0 7.0 49 55
+ 0.29543 2 3 cbr 210 ------- 0 1.0 7.0 49 55
- 0.29543 2 3 cbr 210 ------- 0 1.0 7.0 49 55
r 0.295712 5 7 cbr 210 ------- 0 1.0 7.0 40 44
r 0.298602 2 3 cbr 210 ------- 0 1.0 7.0 47 53
+ 0.298602 3 5 cbr 210 ------- 0 1.0 7.0 47 53
- 0.298602 3 5 cbr 210 ------- 0 1.0 7.0 47 53
+ 0.29875 1 2 cbr 210 ------- 0 1.0 7.0 53 61
- 0.29875 1 2 cbr 210 ------- 0 1.0 7.0 53 61
r 0.299032 3 5 cbr 210 ------- 0 1.0 7.0 44 50
+ 0.299032 5 7 cbr 210 ------- 0 1.0 7.0 44 50
- 0.299032 5 7 cbr 210 ------- 0 1.0 7.0 44 50
r 0.29918 1 2 cbr 210 ------- 0 1.0 7.0 50 56