+ 0.1 0 2 tcp 40 ------- 0 0.0 6.0 0 0
- 0.1 0 2 tcp 40 ------- 0 0.0 6.0 0 0
+ 0.1 1 2 cbr 210 ------- 0 1.0 7.0 0 1
- 0.1 1 2 cbr 210 ------- 0 1.0 7.0 0 1
+ 0.10375 1 2 cbr 210 ------- 0 1.0 7.0 1 2
- 0.10375 1 2 cbr 210 ------- 0 1.0 7.0 1 2
+ 0.1075 1 2 cbr 210 ------- 0 1.0 7.0 2 3
- 0.1075 1 2 cbr 210 ------- 0 1.0 7.0 2 3
r 0.11032 0 2 tcp 40 ------- 0 0.0 6.0 0 0
+ 0.11032 2 3 tcp 40 ------- 0 0.0 6.0 0 0
- 0.11032 2 3 tcp 40 ------- 0 0.0 6.0 0 0
+ 0.11125 1 2 cbr 210 ------- 0 1.0 7.0 3 4
- 0.11125 1 2 cbr 210 ------- 0 1.0 7.0 3 4
r 0.11168 1 2 cbr 210 ------- 0 1.0 7.0 0 1
+ 0.11168 2 3 cbr 210 ------- 0 1.0 7.0 0 1
- 0.11168 2 3 cbr 210 ------- 0 1.0 7.0 0 1
+ 0.115 1 2 cbr 210 ------- 0 1.0 7.0 4 5
- 0.115 1 2 cbr 210 ------- 0 1.0 7.0 4 5
r 0.11543 1 2 cbr 210 ------- 0 1.0 7.0 1 2
+ 0.11543 2 3 cbr 210 ------- 0 1.0 7.0 1 2
- 0.11543 2 3 cbr 210 ------- 0 1.0 7.0 1 2
+ 0.11875 1 2 cbr 210 ------- 0 1.0 7.0 5 6
- 0.11875 1 2 cbr 210 ------- 0 1.0 7.0 5 6
r 0.11918 1 2 cbr 210 ------- 0 1.0 7.0 2 3
+ 0.11918 2 3 cbr 210 ------- 0 1.0 7.0 2 3
- 0.11918 2 3 cbr 210 ------- 0 1.0 7.0 2 3
r 0.120747 2 3 tcp 40 ------- 0 0.0 6.0 0 0
+ 0.120747 3 4 tcp 40 ------- 0 0.0 6.0 0 0
- 0.120747 3 4 tcp 40 ------- 0 0.0 6.0 0 0
+ 0.1225 1 2 cbr 210 ------- 0 1.0 7.0 6 7
- 0.1225 1 2 cbr 210 ------- 0 1.0 7.0 6 7
r 0.12293 1 2 cbr 210 ------- 0 1.0 7.0 3 4
+ 0.12293 2 3 cbr 210 ------- 0 1.0 7.0 3 4
- 0.12293 2 3 cbr 210 ------- 0 1.0 7.0 3 4
r 0.12392 2 3 cbr 210 ------- 0 1.0 7.0 0 1
+ 0.12392 3 5 cbr 210 ------- 0 1.0 7.0 0 1
- 0.12392 3 5 cbr 210 ------- 0 1.0 7.0 0 1
+ 0.12625 1 2 cbr 210 ------- 0 1.0 7.0 7 8
- 0.12625 1 2 cbr 210 ------- 0 1.0 7.0 7 8
r 0.12668 1 2 cbr 210 ------- 0 1.0 7.0 4 5
+ 0.12668 2 3 cbr 210 ------- 0 1.0 7.0 4 5
- 0.12668 2 3 cbr 210 ------- 0 1.0 7.0 4 5
r 0.12767 2 3 cbr 210 ------- 0 1.0 7.0 1 2
+ 0.12767 3 5 cbr 210 ------- 0 1.0 7.0 1 2
- 0.12767 3 5 cbr 210 ------- 0 1.0 7.0 1 2
+ 0.13 1 2 cbr 210 ------- 0 1.0 7.0 8 9
- 0.13 1 2 cbr 210 ------- 0 1.0 7.0 8 9
r 0.13043 1 2 cbr 210 ------- 0 1.0 7.0 5 6
+ 0.13043 2 3 cbr 210 ------- 0 1.0 7.0 5 6
- 0.13043 2 3 cbr 210 ------- 0 1.0 7.0 5 6
r 0.131067 3 4 tcp 40 ------- 0 0.0 6.0 0 0
+ 0.131067 4 6 tcp 40 ------- 0 0.0 6.0 0 0
- 0.131067 4 6 tcp 40 ------- 0 0.0 6.0 0 0
r 0.13142 2 3 cbr 210 ------- 0 1.0 7.0 2 3
+ 0.13142 3 5 cbr 210 ------- 0 1.0 7.0 2 3
- 0.13142 3 5 cbr 210 ------- 0 1.0 7.0 2 3
+ 0.13375 1 2 cbr 210 ------- 0 1.0 7.0 9 10
- 0.13375 1 2 cbr 210 ------- 0 1.0 7.0 9 10
r 0.13418 1 2 cbr 210 ------- 0 1.0 7.0 6 7
+ 0.13418 2 3 cbr 210 ------- 0 1.0 7.0 6 7
- 0.13418 2 3 cbr 210 ------- 0 1.0 7.0 6 7
r 0.13517 2 3 cbr 210 ------- 0 1.0 7.0 3 4
+ 0.13517 3 5 cbr 210 ------- 0 1.0 7.0 3 4
- 0.13517 3 5 cbr 210 ------- 0 1.0 7.0 3 4
r 0.1356 3 5 cbr 210 ------- 0 1.0 7.0 0 1
+ 0.1356 5 7 cbr 210 ------- 0 1.0 7.0 0 1
- 0.1356 5 7 cbr 210 ------- 0 1.0 7.0 0 1
+ 0.1375 1 2 cbr 210 ------- 0 1.0 7.0 10 11
- 0.1375 1 2 cbr 210 ------- 0 1.0 7.0 10 11
r 0.13793 1 2 cbr 210 ------- 0 1.0 7.0 7 8
+ 0.13793 2 3 cbr 210 ------- 0 1.0 7.0 7 8
- 0.13793 2 3 cbr 210 ------- 0 1.0 7.0 7 8
r 0.13892 2 3 cbr 210 ------- 0 1.0 7.0 4 5
+ 0.13892 3 5 cbr 210 ------- 0 1.0 7.0 4 5
- 0.13892 3 5 cbr 210 ------- 0 1.0 7.0 4 5
r 0.13935 3 5 cbr 210 ------- 0 1.0 7.0 1 2
+ 0.13935 5 7 cbr 210 ------- 0 1.0 7.0 1 2
- 0.13935 5 7 cbr 210 ------- 0 1.0 7.0 1 2
+ 0.14125 1 2 cbr 210 ------- 0 1.0 7.0 11 12
- 0.14125 1 2 cbr 210 ------- 0 1.0 7.0 11 12
r 0.141387 4 6 tcp 40 ------- 0 0.0 6.0 0 0
+ 0.141387 6 4 ack 40 ------- 0 6.0 0.0 0 13
- 0.141387 6 4 ack 40 ------- 0 6.0 0.0 0 13
r 0.14168 1 2 cbr 210 ------- 0 1.0 7.0 8 9
+ 0.14168 2 3 cbr 210 ------- 0 1.0 7.0 8 9
- 0.14168 2 3 cbr 210 ------- 0 1.0 7.0 8 9
r 0.14267 2 3 cbr 210 ------- 0 1.0 7.0 5 6
+ 0.14267 3 5 cbr 210 ------- 0 1.0 7.0 5 6
- 0.14267 3 5 cbr 210 ------- 0 1.0 7.0 5 6
r 0.1431 3 5 cbr 210 ------- 0 1.0 7.0 2 3
+ 0.1431 5 7 cbr 210 ------- 0 1.0 7.0 2 3
- 0.1431 5 7 cbr 210 ------- 0 1.0 7.0 2 3
+ 0.145 1 2 cbr 210 ------- 0 1.0 7.0 12 14
- 0.145 1 2 cbr 210 ------- 0 1.0 7.0 12 14
r 0.14543 1 2 cbr 210 ------- 0 1.0 7.0 9 10
+ 0.14543 2 3 cbr 210 ------- 0 1.0 7.0 9 10
- 0.14543 2 3 cbr 210 ------- 0 1.0 7.0 9 10
r 0.14642 2 3 cbr 210 ------- 0 1.0 7.0 6 7
+ 0.14642 3 5 cbr 210 ------- 0 1.0 7.0 6 7
- 0.14642 3 5 cbr 210 ------- 0 1.0 7.0 6 7
r 0.14685 3 5 cbr 210 ------- 0 1.0 7.0 3 4
+ 0.14685 5 7 cbr 210 ------- 0 1.0 7.0 3 4
- 0.14685 5 7 cbr 210 ------- 0 1.0 7.0 3 4
r 0.14728 5 7 cbr 210 ------- 0 1.0 7.0 0 1
+ 0.14875 1 2 cbr 210 ------- 0 1.0 7.0 13 15
- 0.14875 1 2 cbr 210 ------- 0 1.0 7.0 13 15
r 0.14918 1 2 cbr 210 ------- 0 1.0 7.0 10 11
+ 0.14918 2 3 cbr 210 ------- 0 1.0 7.0 10 11
- 0.14918 2 3 cbr 210 ------- 0 1.0 7.0 10 11
r 0.15017 2 3 cbr 210 ------- 0 1.0 7.0 7 8
+ 0.15017 3 5 cbr 210 ------- 0 1.0 7.0 7 8
- 0.15017 3 5 cbr 210 ------- 0 1.0 7.0 7 8
r 0.1506 3 5 cbr 210 ------- 0 1.0 7.0 4 5
+ 0.1506 5 7 cbr 210 ------- 0 1.0 7.0 4 5
- 0.1506 5 7 cbr 210 ------- 0 1.0 7.0 4 5
r 0.15103 5 7 cbr 210 ------- 0 1.0 7.0 1 2
r 0.151707 6 4 ack 40 ------- 0 6.0 0.0 0 13
+ 0.151707 4 3 ack 40 ------- 0 6.0 0.0 0 13
- 0.151707 4 3 ack 40 ------- 0 6.0 0.0 0 13
+ 0.1525 1 2 cbr 210 ------- 0 1.0 7.0 14 16
- 0.1525 1 2 cbr 210 ------- 0 1.0 7.0 14 16
r 0.15293 1 2 cbr 210 ------- 0 1.0 7.0 11 12
+ 0.15293 2 3 cbr 210 ------- 0 1.0 7.0 11 12
- 0.15293 2 3 cbr 210 ------- 0 1.0 7.0 11 12
r 0.15392 2 3 cbr 210 ------- 0 1.0 7.0 8 9
+ 0.15392 3 5 cbr 210 ------- 0 1.0 7.0 8 9
- 0.15392 3 5 cbr 210 ------- 0 1.0 7.0 8 9
r 0.15435 3 5 cbr 210 ------- 0 1.0 7.0 5 6
+ 0.15435 5 7 cbr 210 ------- 0 1.0 7.0 5 6
- 0.15435 5 7 cbr 210 ------- 0 1.0 7.0 5 6
r 0.15478 5 7 cbr 210 ------- 0 1.0 7.0 2 3
+ 0.15625 1 2 cbr 210 ------- 0 1.0 7.0 15 17
- 0.15625 1 2 cbr 210 ------- 0 1.0 7.0 15 17
r 0.15668 1 2 cbr 210 ------- 0 1.0 7.0 12 14
+ 0.15668 2 3 cbr 210 ------- 0 1.0 7.0 12 14
- 0.15668 2 3 cbr 210 ------- 0 1.0 7.0 12 14
r 0.15767 2 3 cbr 210 ------- 0 1.0 7.0 9 10
+ 0.15767 3 5 cbr 210 ------- 0 1.0 7.0 9 10
- 0.15767 3 5 cbr 210 ------- 0 1.0 7.0 9 10
r 0.1581 3 5 cbr 210 ------- 0 1.0 7.0 6 7
+ 0.1581 5 7 cbr 210 ------- 0 1.0 7.0 6 7
- 0.1581 5 7 cbr 210 ------- 0 1.0 7.0 6 7
r 0.15853 5 7 cbr 210 ------- 0 1.0 7.0 3 4
+ 0.16 1 2 cbr 210 ------- 0 1.0 7.0 16 18
- 0.16 1 2 cbr 210 ------- 0 1.0 7.0 16 18
r 0.16043 1 2 cbr 210 ------- 0 1.0 7.0 13 15
+ 0.16043 2 3 cbr 210 ------- 0 1.0 7.0 13 15
- 0.16043 2 3 cbr 210 ------- 0 1.0 7.0 13 15
r 0.16142 2 3 cbr 210 ------- 0 1.0 7.0 10 11
+ 0.16142 3 5 cbr 210 ------- 0 1.0 7.0 10 11
- 0.16142 3 5 cbr 210 ------- 0 1.0 7.0 10 11
r 0.16185 3 5 cbr 210 ------- 0 1.0 7.0 7 8
+ 0.16185 5 7 cbr 210 ------- 0 1.0 7.0 7 8
- 0.16185 5 7 cbr 210 ------- 0 1.0 7.0 7 8
r 0.162027 4 3 ack 40 ------- 0 6.0 0.0 0 13
+ 0.162027 3 2 ack 40 ------- 0 6.0 0.0 0 13
- 0.162027 3 2 ack 40 ------- 0 6.0 0.0 0 13
r 0.16228 5 7 cbr 210 ------- 0 1.0 7.0 4 5
+ 0.16375 1 2 cbr 210 ------- 0 1.0 7.0 17 19
- 0.16375 1 2 cbr 210 ------- 0 1.0 7.0 17 19
r 0.16418 1 2 cbr 210 ------- 0 1.0 7.0 14 16
+ 0.16418 2 3 cbr 210 ------- 0 1.0 7.0 14 16
- 0.16418 2 3 cbr 210 ------- 0 1.0 7.0 14 16
r 0.16517 2 3 cbr 210 ------- 0 1.0 7.0 11 12
+ 0.16517 3 5 cbr 210 ------- 0 1.0 7.0 11 12
- 0.16517 3 5 cbr 210 ------- 0 1.0 7.0 11 12
r 0.1656 3 5 cbr 210 ------- 0 1.0 7.0 8 9
+ 0.1656 5 7 cbr 210 ------- 0 1.0 7.0 8 9
- 0.1656 5 7 cbr 210 ------- 0 1.0 7.0 8 9
r 0.16603 5 7 cbr 210 ------- 0 1.0 7.0 5 6
+ 0.1675 1 2 cbr 210 ------- 0 1.0 7.0 18 20
- 0.1675 1 2 cbr 210 ------- 0 1.0 7.0 18 20
r 0.16793 1 2 cbr 210 ------- 0 1.0 7.0 15 17
+ 0.16793 2 3 cbr 210 ------- 0 1.0 7.0 15 17
- 0.16793 2 3 cbr 210 ------- 0 1.0 7.0 15 17
r 0.16892 2 3 cbr 210 ------- 0 1.0 7.0 12 14
+ 0.16892 3 5 cbr 210 ------- 0 1.0 7.0 12 14
- 0.16892 3 5 cbr 210 ------- 0 1.0 7.0 12 14
r 0.16935 3 5 cbr 210 ------- 0 1.0 7.0 9 10
+ 0.16935 5 7 cbr 210 ------- 0 1.0 7.0 9 10
- 0.16935 5 7 cbr 210 ------- 0 1.0 7.0 9 10
r 0.16978 5 7 cbr 210 ------- 0 1.0 7.0 6 7
+ 0.17125 1 2 cbr 210 ------- 0 1.0 7.0 19 21
- 0.17125 1 2 cbr 210 ------- 0 1.0 7.0 19 21
r 0.17168 1 2 cbr 210 ------- 0 1.0 7.0 16 18
+ 0.17168 2 3 cbr 210 ------- 0 1.0 7.0 16 18
- 0.17168 2 3 cbr 210 ------- 0 1.0 7.0 16 18
r 0.172453 3 2 ack 40 ------- 0 6.0 0.0 0 13
+ 0.172453 2 0 ack 40 ------- 0 6.0 0.0 0 13
- 0.172453 2 0 ack 40 ------- 0 6.0 0.0 0 13
r 0.17267 2 3 cbr 210 ------- 0 1.0 7.0 13 15
+ 0.17267 3 5 cbr 210 ------- 0 1.0 7.0 13 15
- 0.17267 3 5 cbr 210 ------- 0 1.0 7.0 13 15
r 0.1731 3 5 cbr 210 ------- 0 1.0 7.0 10 11
+ 0.1731 5 7 cbr 210 ------- 0 1.0 7.0 10 11
- 0.1731 5 7 cbr 210 ------- 0 1.0 7.0 10 11
r 0.17353 5 7 cbr 210 ------- 0 1.0 7.0 7 8
+ 0.175 1 2 cbr 210 ------- 0 1.0 7.0 20 22
- 0.175 1 2 cbr 210 ------- 0 1.0 7.0 20 22
r 0.17543 1 2 cbr 210 ------- 0 1.0 7.0 17 19
+ 0.17543 2 3 cbr 210 ------- 0 1.0 7.0 17 19
- 0.17543 2 3 cbr 210 ------- 0 1.0 7.0 17 19
r 0.17642 2 3 cbr 210 ------- 0 1.0 7.0 14 16
+ 0.17642 3 5 cbr 210 ------- 0 1.0 7.0 14 16
- 0.17642 3 5 cbr 210 ------- 0 1.0 7.0 14 16
r 0.17685 3 5 cbr 210 ------- 0 1.0 7.0 11 12
+ 0.17685 5 7 cbr 210 ------- 0 1.0 7.0 11 12
- 0.17685 5 7 cbr 210 ------- 0 1.0 7.0 11 12
r 0.17728 5 7 cbr 210 ------- 0 1.0 7.0 8 9
+ 0.17875 1 2 cbr 210 ------- 0 1.0 7.0 21 23
- 0.17875 1 2 cbr 210 ------- 0 1.0 7.0 21 23
r 0.17918 1 2 cbr 210 ------- 0 1.0 7.0 18 20
+ 0.17918 2 3 cbr 210 ------- 0 1.0 7.0 18 20
- 0.17918 2 3 cbr 210 ------- 0 1.0 7.0 18 20
r 0.18017 2 3 cbr 210 ------- 0 1.0 7.0 15 17
+ 0.18017 3 5 cbr 210 ------- 0 1.0 7.0 15 17
- 0.18017 3 5 cbr 210 ------- 0 1.0 7.0 15 17
r 0.1806 3 5 cbr 210 ------- 0 1.0 7.0 12 14
+ 0.1806 5 7 cbr 210 ------- 0 1.0 7.0 12 14
- 0.1806 5 7 cbr 210 ------- 0 1.0 7.0 12 14
r 0.18103 5 7 cbr 210 ------- 0 1.0 7.0 9 10
+ 0.1825 1 2 cbr 210 ------- 0 1.0 7.0 22 24
- 0.1825 1 2 cbr 210 ------- 0 1.0 7.0 22 24
r 0.182773 2 0 ack 40 ------- 0 6.0 0.0 0 13
+ 0.182773 0 2 tcp 1040 ------- 0 0.0 6.0 1 25
- 0.182773 0 2 tcp 1040 ------- 0 0.0 6.0 1 25
+ 0.182773 0 2 tcp 1040 ------- 0 0.0 6.0 2 26
r 0.18293 1 2 cbr 210 ------- 0 1.0 7.0 19 21
+ 0.18293 2 3 cbr 210 ------- 0 1.0 7.0 19 21
- 0.18293 2 3 cbr 210 ------- 0 1.0 7.0 19 21
r 0.18392 2 3 cbr 210 ------- 0 1.0 7.0 16 18
+ 0.18392 3 5 cbr 210 ------- 0 1.0 7.0 16 18
- 0.18392 3 5 cbr 210 ------- 0 1.0 7.0 16 18
r 0.18435 3 5 cbr 210 ------- 0 1.0 7.0 13 15
+ 0.18435 5 7 cbr 210 ------- 0 1.0 7.0 13 15
- 0.18435 5 7 cbr 210 ------- 0 1.0 7.0 13 15
r 0.18478 5 7 cbr 210 ------- 0 1.0 7.0 10 11
+ 0.18625 1 2 cbr 210 ------- 0 1.0 7.0 23 27
- 0.18625 1 2 cbr 210 ------- 0 1.0 7.0 23 27
r 0.18668 1 2 cbr 210 ------- 0 1.0 7.0 20 22
+ 0.18668 2 3 cbr 210 ------- 0 1.0 7.0 20 22
- 0.18668 2 3 cbr 210 ------- 0 1.0 7.0 20 22
r 0.18767 2 3 cbr 210 ------- 0 1.0 7.0 17 19
+ 0.18767 3 5 cbr 210 ------- 0 1.0 7.0 17 19
- 0.18767 3 5 cbr 210 ------- 0 1.0 7.0 17 19
r 0.1881 3 5 cbr 210 ------- 0 1.0 7.0 14 16
+ 0.1881 5 7 cbr 210 ------- 0 1.0 7.0 14 16
- 0.1881 5 7 cbr 210 ------- 0 1.0 7.0 14 16
r 0.18853 5 7 cbr 210 ------- 0 1.0 7.0 11 12
+ 0.19 1 2 cbr 210 ------- 0 1.0 7.0 24 28
- 0.19 1 2 cbr 210 ------- 0 1.0 7.0 24 28
r 0.19043 1 2 cbr 210 ------- 0 1.0 7.0 21 23
+ 0.19043 2 3 cbr 210 ------- 0 1.0 7.0 21 23
- 0.19043 2 3 cbr 210 ------- 0 1.0 7.0 21 23
- 0.191093 0 2 tcp 1040 ------- 0 0.0 6.0 2 26
r 0.19142 2 3 cbr 210 ------- 0 1.0 7.0 18 20
+ 0.19142 3 5 cbr 210 ------- 0 1.0 7.0 18 20
- 0.19142 3 5 cbr 210 ------- 0 1.0 7.0 18 20
r 0.19185 3 5 cbr 210 ------- 0 1.0 7.0 15 17
+ 0.19185 5 7 cbr 210 ------- 0 1.0 7.0 15 17
- 0.19185 5 7 cbr 210 ------- 0 1.0 7.0 15 17
r 0.19228 5 7 cbr 210 ------- 0 1.0 7.0 12 14
+ 0.19375 1 2 cbr 210 ------- 0 1.0 7.0 25 29
- 0.19375 1 2 cbr 210 ------- 0 1.0 7.0 25 29
r 0.19418 1 2 cbr 210 ------- 0 1.0 7.0 22 24
+ 0.19418 2 3 cbr 210 ------- 0 1.0 7.0 22 24
- 0.19418 2 3 cbr 210 ------- 0 1.0 7.0 22 24
r 0.19517 2 3 cbr 210 ------- 0 1.0 7.0 19 21
+ 0.19517 3 5 cbr 210 ------- 0 1.0 7.0 19 21
- 0.19517 3 5 cbr 210 ------- 0 1.0 7.0 19 21
r 0.1956 3 5 cbr 210 ------- 0 1.0 7.0 16 18
+ 0.1956 5 7 cbr 210 ------- 0 1.0 7.0 16 18
- 0.1956 5 7 cbr 210 ------- 0 1.0 7.0 16 18
r 0.19603 5 7 cbr 210 ------- 0 1.0 7.0 13 15
+ 0.1975 1 2 cbr 210 ------- 0 1.0 7.0 26 30
- 0.1975 1 2 cbr 210 ------- 0 1.0 7.0 26 30
r 0.19793 1 2 cbr 210 ------- 0 1.0 7.0 23 27
+ 0.19793 2 3 cbr 210 ------- 0 1.0 7.0 23 27
- 0.19793 2 3 cbr 210 ------- 0 1.0 7.0 23 27
r 0.19892 2 3 cbr 210 ------- 0 1.0 7.0 20 22
+ 0.19892 3 5 cbr 210 ------- 0 1.0 7.0 20 22
- 0.19892 3 5 cbr 210 ------- 0 1.0 7.0 20 22
r 0.19935 3 5 cbr 210 ------- 0 1.0 7.0 17 19
+ 0.19935 5 7 cbr 210 ------- 0 1.0 7.0 17 19
- 0.19935 5 7 cbr 210 ------- 0 1.0 7.0 17 19
r 0.19978 5 7 cbr 210 ------- 0 1.0 7.0 14 16
r 0.201093 0 2 tcp 1040 ------- 0 0.0 6.0 1 25
+ 0.201093 2 3 tcp 1040 ------- 0 0.0 6.0 1 25
- 0.201093 2 3 tcp 1040 ------- 0 0.0 6.0 1 25
+ 0.20125 1 2 cbr 210 ------- 0 1.0 7.0 27 31
- 0.20125 1 2 cbr 210 ------- 0 1.0 7.0 27 31
r 0.20168 1 2 cbr 210 ------- 0 1.0 7.0 24 28
+ 0.20168 2 3 cbr 210 ------- 0 1.0 7.0 24 28
r 0.20267 2 3 cbr 210 ------- 0 1.0 7.0 21 23
+ 0.20267 3 5 cbr 210 ------- 0 1.0 7.0 21 23
- 0.20267 3 5 cbr 210 ------- 0 1.0 7.0 21 23
r 0.2031 3 5 cbr 210 ------- 0 1.0 7.0 18 20
+ 0.2031 5 7 cbr 210 ------- 0 1.0 7.0 18 20
- 0.2031 5 7 cbr 210 ------- 0 1.0 7.0 18 20
r 0.20353 5 7 cbr 210 ------- 0 1.0 7.0 15 17
+ 0.205 1 2 cbr 210 ------- 0 1.0 7.0 28 32
- 0.205 1 2 cbr 210 ------- 0 1.0 7.0 28 32
r 0.20543 1 2 cbr 210 ------- 0 1.0 7.0 25 29
+ 0.20543 2 3 cbr 210 ------- 0 1.0 7.0 25 29
r 0.20642 2 3 cbr 210 ------- 0 1.0 7.0 22 24
+ 0.20642 3 5 cbr 210 ------- 0 1.0 7.0 22 24
- 0.20642 3 5 cbr 210 ------- 0 1.0 7.0 22 24
r 0.20685 3 5 cbr 210 ------- 0 1.0 7.0 19 21
+ 0.20685 5 7 cbr 210 ------- 0 1.0 7.0 19 21
- 0.20685 5 7 cbr 210 ------- 0 1.0 7.0 19 21
r 0.20728 5 7 cbr 210 ------- 0 1.0 7.0 16 18
+ 0.20875 1 2 cbr 210 ------- 0 1.0 7.0 29 33
- 0.20875 1 2 cbr 210 ------- 0 1.0 7.0 29 33
r 0.20918 1 2 cbr 210 ------- 0 1.0 7.0 26 30
+ 0.20918 2 3 cbr 210 ------- 0 1.0 7.0 26 30
r 0.209413 0 2 tcp 1040 ------- 0 0.0 6.0 2 26
+ 0.209413 2 3 tcp 1040 ------- 0 0.0 6.0 2 26
r 0.21017 2 3 cbr 210 ------- 0 1.0 7.0 23 27
+ 0.21017 3 5 cbr 210 ------- 0 1.0 7.0 23 27
- 0.21017 3 5 cbr 210 ------- 0 1.0 7.0 23 27
r 0.2106 3 5 cbr 210 ------- 0 1.0 7.0 20 22
+ 0.2106 5 7 cbr 210 ------- 0 1.0 7.0 20 22
- 0.2106 5 7 cbr 210 ------- 0 1.0 7.0 20 22
r 0.21103 5 7 cbr 210 ------- 0 1.0 7.0 17 19
- 0.212187 2 3 cbr 210 ------- 0 1.0 7.0 24 28
+ 0.2125 1 2 cbr 210 ------- 0 1.0 7.0 30 34
- 0.2125 1 2 cbr 210 ------- 0 1.0 7.0 30 34
r 0.21293 1 2 cbr 210 ------- 0 1.0 7.0 27 31
+ 0.21293 2 3 cbr 210 ------- 0 1.0 7.0 27 31
r 0.21435 3 5 cbr 210 ------- 0 1.0 7.0 21 23
+ 0.21435 5 7 cbr 210 ------- 0 1.0 7.0 21 23
- 0.21435 5 7 cbr 210 ------- 0 1.0 7.0 21 23
- 0.214427 2 3 cbr 210 ------- 0 1.0 7.0 25 29
r 0.21478 5 7 cbr 210 ------- 0 1.0 7.0 18 20
+ 0.21625 1 2 cbr 210 ------- 0 1.0 7.0 31 35
- 0.21625 1 2 cbr 210 ------- 0 1.0 7.0 31 35
- 0.216667 2 3 cbr 210 ------- 0 1.0 7.0 26 30
r 0.21668 1 2 cbr 210 ------- 0 1.0 7.0 28 32
+ 0.21668 2 3 cbr 210 ------- 0 1.0 7.0 28 32
r 0.2181 3 5 cbr 210 ------- 0 1.0 7.0 22 24
+ 0.2181 5 7 cbr 210 ------- 0 1.0 7.0 22 24
- 0.2181 5 7 cbr 210 ------- 0 1.0 7.0 22 24
r 0.21853 5 7 cbr 210 ------- 0 1.0 7.0 19 21
- 0.218907 2 3 tcp 1040 ------- 0 0.0 6.0 2 26
+ 0.22 1 2 cbr 210 ------- 0 1.0 7.0 32 36
- 0.22 1 2 cbr 210 ------- 0 1.0 7.0 32 36
r 0.22043 1 2 cbr 210 ------- 0 1.0 7.0 29 33
+ 0.22043 2 3 cbr 210 ------- 0 1.0 7.0 29 33
r 0.22185 3 5 cbr 210 ------- 0 1.0 7.0 23 27
+ 0.22185 5 7 cbr 210 ------- 0 1.0 7.0 23 27
- 0.22185 5 7 cbr 210 ------- 0 1.0 7.0 23 27
r 0.222187 2 3 tcp 1040 ------- 0 0.0 6.0 1 25
+ 0.222187 3 4 tcp 1040 ------- 0 0.0 6.0 1 25
- 0.222187 3 4 tcp 1040 ------- 0 0.0 6.0 1 25
r 0.22228 5 7 cbr 210 ------- 0 1.0 7.0 20 22
+ 0.22375 1 2 cbr 210 ------- 0 1.0 7.0 33 37
- 0.22375 1 2 cbr 210 ------- 0 1.0 7.0 33 37
r 0.22418 1 2 cbr 210 ------- 0 1.0 7.0 30 34
+ 0.22418 2 3 cbr 210 ------- 0 1.0 7.0 30 34
r 0.224427 2 3 cbr 210 ------- 0 1.0 7.0 24 28
+ 0.224427 3 5 cbr 210 ------- 0 1.0 7.0 24 28
- 0.224427 3 5 cbr 210 ------- 0 1.0 7.0 24 28
r 0.22603 5 7 cbr 210 ------- 0 1.0 7.0 21 23
r 0.226667 2 3 cbr 210 ------- 0 1.0 7.0 25 29
+ 0.226667 3 5 cbr 210 ------- 0 1.0 7.0 25 29
- 0.226667 3 5 cbr 210 ------- 0 1.0 7.0 25 29
+ 0.2275 1 2 cbr 210 ------- 0 1.0 7.0 34 38
- 0.2275 1 2 cbr 210 ------- 0 1.0 7.0 34 38
r 0.22793 1 2 cbr 210 ------- 0 1.0 7.0 31 35
+ 0.22793 2 3 cbr 210 ------- 0 1.0 7.0 31 35
r 0.228907 2 3 cbr 210 ------- 0 1.0 7.0 26 30
+ 0.228907 3 5 cbr 210 ------- 0 1.0 7.0 26 30
- 0.228907 3 5 cbr 210 ------- 0 1.0 7.0 26 30
r 0.22978 5 7 cbr 210 ------- 0 1.0 7.0 22 24
- 0.23 2 3 cbr 210 ------- 0 1.0 7.0 27 31
+ 0.23125 1 2 cbr 210 ------- 0 1.0 7.0 35 39
- 0.23125 1 2 cbr 210 ------- 0 1.0 7.0 35 39
r 0.23168 1 2 cbr 210 ------- 0 1.0 7.0 32 36
+ 0.23168 2 3 cbr 210 ------- 0 1.0 7.0 32 36
- 0.23224 2 3 cbr 210 ------- 0 1.0 7.0 28 32
r 0.23353 5 7 cbr 210 ------- 0 1.0 7.0 23 27
- 0.23448 2 3 cbr 210 ------- 0 1.0 7.0 29 33
+ 0.235 1 2 cbr 210 ------- 0 1.0 7.0 36 40
- 0.235 1 2 cbr 210 ------- 0 1.0 7.0 36 40
r 0.23543 1 2 cbr 210 ------- 0 1.0 7.0 33 37
+ 0.23543 2 3 cbr 210 ------- 0 1.0 7.0 33 37
r 0.236107 3 5 cbr 210 ------- 0 1.0 7.0 24 28
+ 0.236107 5 7 cbr 210 ------- 0 1.0 7.0 24 28
- 0.236107 5 7 cbr 210 ------- 0 1.0 7.0 24 28
- 0.23672 2 3 cbr 210 ------- 0 1.0 7.0 30 34
r 0.238347 3 5 cbr 210 ------- 0 1.0 7.0 25 29
+ 0.238347 5 7 cbr 210 ------- 0 1.0 7.0 25 29
- 0.238347 5 7 cbr 210 ------- 0 1.0 7.0 25 29
+ 0.23875 1 2 cbr 210 ------- 0 1.0 7.0 37 41
- 0.23875 1 2 cbr 210 ------- 0 1.0 7.0 37 41
- 0.23896 2 3 cbr 210 ------- 0 1.0 7.0 31 35
r 0.23918 1 2 cbr 210 ------- 0 1.0 7.0 34 38
+ 0.23918 2 3 cbr 210 ------- 0 1.0 7.0 34 38
r 0.24 2 3 tcp 1040 ------- 0 0.0 6.0 2 26
+ 0.24 3 4 tcp 1040 ------- 0 0.0 6.0 2 26
- 0.24 3 4 tcp 1040 ------- 0 0.0 6.0 2 26
r 0.240507 3 4 tcp 1040 ------- 0 0.0 6.0 1 25
+ 0.240507 4 6 tcp 1040 ------- 0 0.0 6.0 1 25
- 0.240507 4 6 tcp 1040 ------- 0 0.0 6.0 1 25
r 0.240587 3 5 cbr 210 ------- 0 1.0 7.0 26 30
+ 0.240587 5 7 cbr 210 ------- 0 1.0 7.0 26 30
- 0.240587 5 7 cbr 210 ------- 0 1.0 7.0 26 30
- 0.2412 2 3 cbr 210 ------- 0 1.0 7.0 32 36
r 0.24224 2 3 cbr 210 ------- 0 1.0 7.0 27 31
+ 0.24224 3 5 cbr 210 ------- 0 1.0 7.0 27 31
- 0.24224 3 5 cbr 210 ------- 0 1.0 7.0 27 31
+ 0.2425 1 2 cbr 210 ------- 0 1.0 7.0 38 42
- 0.2425 1 2 cbr 210 ------- 0 1.0 7.0 38 42
r 0.24293 1 2 cbr 210 ------- 0 1.0 7.0 35 39
+ 0.24293 2 3 cbr 210 ------- 0 1.0 7.0 35 39
- 0.24344 2 3 cbr 210 ------- 0 1.0 7.0 33 37
r 0.24448 2 3 cbr 210 ------- 0 1.0 7.0 28 32
+ 0.24448 3 5 cbr 210 ------- 0 1.0 7.0 28 32
- 0.24448 3 5 cbr 210 ------- 0 1.0 7.0 28 32
- 0.24568 2 3 cbr 210 ------- 0 1.0 7.0 34 38
+ 0.24625 1 2 cbr 210 ------- 0 1.0 7.0 39 43
- 0.24625 1 2 cbr 210 ------- 0 1.0 7.0 39 43
r 0.24668 1 2 cbr 210 ------- 0 1.0 7.0 36 40
+ 0.24668 2 3 cbr 210 ------- 0 1.0 7.0 36 40
r 0.24672 2 3 cbr 210 ------- 0 1.0 7.0 29 33
+ 0.24672 3 5 cbr 210 ------- 0 1.0 7.0 29 33
- 0.24672 3 5 cbr 210 ------- 0 1.0 7.0 29 33
r 0.247787 5 7 cbr 210 ------- 0 1.0 7.0 24 28
- 0.24792 2 3 cbr 210 ------- 0 1.0 7.0 35 39
r 0.24896 2 3 cbr 210 ------- 0 1.0 7.0 30 34
+ 0.24896 3 5 cbr 210 ------- 0 1.0 7.0 30 34
- 0.24896 3 5 cbr 210 ------- 0 1.0 7.0 30 34
+ 0.25 1 2 cbr 210 ------- 0 1.0 7.0 40 44
- 0.25 1 2 cbr 210 ------- 0 1.0 7.0 40 44
r 0.250027 5 7 cbr 210 ------- 0 1.0 7.0 25 29
- 0.25016 2 3 cbr 210 ------- 0 1.0 7.0 36 40
r 0.25043 1 2 cbr 210 ------- 0 1.0 7.0 37 41
+ 0.25043 2 3 cbr 210 ------- 0 1.0 7.0 37 41
r 0.2512 2 3 cbr 210 ------- 0 1.0 7.0 31 35
+ 0.2512 3 5 cbr 210 ------- 0 1.0 7.0 31 35
- 0.2512 3 5 cbr 210 ------- 0 1.0 7.0 31 35
r 0.252267 5 7 cbr 210 ------- 0 1.0 7.0 26 30
- 0.2524 2 3 cbr 210 ------- 0 1.0 7.0 37 41
r 0.25344 2 3 cbr 210 ------- 0 1.0 7.0 32 36
+ 0.25344 3 5 cbr 210 ------- 0 1.0 7.0 32 36
- 0.25344 3 5 cbr 210 ------- 0 1.0 7.0 32 36
+ 0.25375 1 2 cbr 210 ------- 0 1.0 7.0 41 45
- 0.25375 1 2 cbr 210 ------- 0 1.0 7.0 41 45
r 0.25392 3 5 cbr 210 ------- 0 1.0 7.0 27 31
+ 0.25392 5 7 cbr 210 ------- 0 1.0 7.0 27 31
- 0.25392 5 7 cbr 210 ------- 0 1.0 7.0 27 31
r 0.25418 1 2 cbr 210 ------- 0 1.0 7.0 38 42
+ 0.25418 2 3 cbr 210 ------- 0 1.0 7.0 38 42
- 0.25464 2 3 cbr 210 ------- 0 1.0 7.0 38 42
r 0.25568 2 3 cbr 210 ------- 0 1.0 7.0 33 37
+ 0.25568 3 5 cbr 210 ------- 0 1.0 7.0 33 37
- 0.25568 3 5 cbr 210 ------- 0 1.0 7.0 33 37
r 0.25616 3 5 cbr 210 ------- 0 1.0 7.0 28 32
+ 0.25616 5 7 cbr 210 ------- 0 1.0 7.0 28 32
- 0.25616 5 7 cbr 210 ------- 0 1.0 7.0 28 32
+ 0.2575 1 2 cbr 210 ------- 0 1.0 7.0 42 46
- 0.2575 1 2 cbr 210 ------- 0 1.0 7.0 42 46
r 0.25792 2 3 cbr 210 ------- 0 1.0 7.0 34 38
+ 0.25792 3 5 cbr 210 ------- 0 1.0 7.0 34 38
- 0.25792 3 5 cbr 210 ------- 0 1.0 7.0 34 38
r 0.25793 1 2 cbr 210 ------- 0 1.0 7.0 39 43
+ 0.25793 2 3 cbr 210 ------- 0 1.0 7.0 39 43
- 0.25793 2 3 cbr 210 ------- 0 1.0 7.0 39 43
r 0.25832 3 4 tcp 1040 ------- 0 0.0 6.0 2 26
+ 0.25832 4 6 tcp 1040 ------- 0 0.0 6.0 2 26
- 0.25832 4 6 tcp 1040 ------- 0 0.0 6.0 2 26
r 0.2584 3 5 cbr 210 ------- 0 1.0 7.0 29 33
+ 0.2584 5 7 cbr 210 ------- 0 1.0 7.0 29 33
- 0.2584 5 7 cbr 210 ------- 0 1.0 7.0 29 33
r 0.258827 4 6 tcp 1040 ------- 0 0.0 6.0 1 25
+ 0.258827 6 4 ack 40 ------- 0 6.0 0.0 1 47
- 0.258827 6 4 ack 40 ------- 0 6.0 0.0 1 47
r 0.26016 2 3 cbr 210 ------- 0 1.0 7.0 35 39
+ 0.26016 3 5 cbr 210 ------- 0 1.0 7.0 35 39
- 0.26016 3 5 cbr 210 ------- 0 1.0 7.0 35 39
r 0.26064 3 5 cbr 210 ------- 0 1.0 7.0 30 34
+ 0.26064 5 7 cbr 210 ------- 0 1.0 7.0 30 34
- 0.26064 5 7 cbr 210 ------- 0 1.0 7.0 30 34
+ 0.26125 1 2 cbr 210 ------- 0 1.0 7.0 43 48
- 0.26125 1 2 cbr 210 ------- 0 1.0 7.0 43 48
r 0.26168 1 2 cbr 210 ------- 0 1.0 7.0 40 44
+ 0.26168 2 3 cbr 210 ------- 0 1.0 7.0 40 44
- 0.26168 2 3 cbr 210 ------- 0 1.0 7.0 40 44
r 0.2624 2 3 cbr 210 ------- 0 1.0 7.0 36 40
+ 0.2624 3 5 cbr 210 ------- 0 1.0 7.0 36 40
- 0.2624 3 5 cbr 210 ------- 0 1.0 7.0 36 40
r 0.26288 3 5 cbr 210 ------- 0 1.0 7.0 31 35
+ 0.26288 5 7 cbr 210 ------- 0 1.0 7.0 31 35
- 0.26288 5 7 cbr 210 ------- 0 1.0 7.0 31 35
r 0.26464 2 3 cbr 210 ------- 0 1.0 7.0 37 41
+ 0.26464 3 5 cbr 210 ------- 0 1.0 7.0 37 41
- 0.26464 3 5 cbr 210 ------- 0 1.0 7.0 37 41
+ 0.265 1 2 cbr 210 ------- 0 1.0 7.0 44 49
- 0.265 1 2 cbr 210 ------- 0 1.0 7.0 44 49
r 0.26512 3 5 cbr 210 ------- 0 1.0 7.0 32 36
+ 0.26512 5 7 cbr 210 ------- 0 1.0 7.0 32 36
- 0.26512 5 7 cbr 210 ------- 0 1.0 7.0 32 36
r 0.26543 1 2 cbr 210 ------- 0 1.0 7.0 41 45
+ 0.26543 2 3 cbr 210 ------- 0 1.0 7.0 41 45
- 0.26543 2 3 cbr 210 ------- 0 1.0 7.0 41 45
r 0.2656 5 7 cbr 210 ------- 0 1.0 7.0 27 31
r 0.26688 2 3 cbr 210 ------- 0 1.0 7.0 38 42
+ 0.26688 3 5 cbr 210 ------- 0 1.0 7.0 38 42
- 0.26688 3 5 cbr 210 ------- 0 1.0 7.0 38 42
r 0.26736 3 5 cbr 210 ------- 0 1.0 7.0 33 37
+ 0.26736 5 7 cbr 210 ------- 0 1.0 7.0 33 37
- 0.26736 5 7 cbr 210 ------- 0 1.0 7.0 33 37
r 0.26784 5 7 cbr 210 ------- 0 1.0 7.0 28 32
+ 0.26875 1 2 cbr 210 ------- 0 1.0 7.0 45 50
- 0.26875 1 2 cbr 210 ------- 0 1.0 7.0 45 50
r 0.269147 6 4 ack 40 ------- 0 6.0 0.0 1 47
+ 0.269147 4 3 ack 40 ------- 0 6.0 0.0 1 47
- 0.269147 4 3 ack 40 ------- 0 6.0 0.0 1 47
r 0.26918 1 2 cbr 210 ------- 0 1.0 7.0 42 46
+ 0.26918 2 3 cbr 210 ------- 0 1.0 7.0 42 46
- 0.26918 2 3 cbr 210 ------- 0 1.0 7.0 42 46
r 0.2696 3 5 cbr 210 ------- 0 1.0 7.0 34 38
+ 0.2696 5 7 cbr 210 ------- 0 1.0 7.0 34 38
- 0.2696 5 7 cbr 210 ------- 0 1.0 7.0 34 38
r 0.27008 5 7 cbr 210 ------- 0 1.0 7.0 29 33
r 0.27017 2 3 cbr 210 ------- 0 1.0 7.0 39 43
+ 0.27017 3 5 cbr 210 ------- 0 1.0 7.0 39 43
- 0.27017 3 5 cbr 210 ------- 0 1.0 7.0 39 43
r 0.27184 3 5 cbr 210 ------- 0 1.0 7.0 35 39
+ 0.27184 5 7 cbr 210 ------- 0 1.0 7.0 35 39
- 0.27184 5 7 cbr 210 ------- 0 1.0 7.0 35 39
r 0.27232 5 7 cbr 210 ------- 0 1.0 7.0 30 34
+ 0.2725 1 2 cbr 210 ------- 0 1.0 7.0 46 51
- 0.2725 1 2 cbr 210 ------- 0 1.0 7.0 46 51
r 0.27293 1 2 cbr 210 ------- 0 1.0 7.0 43 48
+ 0.27293 2 3 cbr 210 ------- 0 1.0 7.0 43 48
- 0.27293 2 3 cbr 210 ------- 0 1.0 7.0 43 48
r 0.27392 2 3 cbr 210 ------- 0 1.0 7.0 40 44
+ 0.27392 3 5 cbr 210 ------- 0 1.0 7.0 40 44
- 0.27392 3 5 cbr 210 ------- 0 1.0 7.0 40 44
r 0.27408 3 5 cbr 210 ------- 0 1.0 7.0 36 40
+ 0.27408 5 7 cbr 210 ------- 0 1.0 7.0 36 40
- 0.27408 5 7 cbr 210 ------- 0 1.0 7.0 36 40
r 0.27456 5 7 cbr 210 ------- 0 1.0 7.0 31 35
+ 0.27625 1 2 cbr 210 ------- 0 1.0 7.0 47 52
- 0.27625 1 2 cbr 210 ------- 0 1.0 7.0 47 52
r 0.27632 3 5 cbr 210 ------- 0 1.0 7.0 37 41
+ 0.27632 5 7 cbr 210 ------- 0 1.0 7.0 37 41
- 0.27632 5 7 cbr 210 ------- 0 1.0 7.0 37 41
r 0.27664 4 6 tcp 1040 ------- 0 0.0 6.0 2 26
+ 0.27664 6 4 ack 40 ------- 0 6.0 0.0 2 53
- 0.27664 6 4 ack 40 ------- 0 6.0 0.0 2 53
r 0.27668 1 2 cbr 210 ------- 0 1.0 7.0 44 49
+ 0.27668 2 3 cbr 210 ------- 0 1.0 7.0 44 49
- 0.27668 2 3 cbr 210 ------- 0 1.0 7.0 44 49
r 0.2768 5 7 cbr 210 ------- 0 1.0 7.0 32 36
r 0.27767 2 3 cbr 210 ------- 0 1.0 7.0 41 45
+ 0.27767 3 5 cbr 210 ------- 0 1.0 7.0 41 45
- 0.27767 3 5 cbr 210 ------- 0 1.0 7.0 41 45
r 0.27856 3 5 cbr 210 ------- 0 1.0 7.0 38 42
+ 0.27856 5 7 cbr 210 ------- 0 1.0 7.0 38 42
- 0.27856 5 7 cbr 210 ------- 0 1.0 7.0 38 42
r 0.27904 5 7 cbr 210 ------- 0 1.0 7.0 33 37
r 0.279467 4 3 ack 40 ------- 0 6.0 0.0 1 47
+ 0.279467 3 2 ack 40 ------- 0 6.0 0.0 1 47
- 0.279467 3 2 ack 40 ------- 0 6.0 0.0 1 47
+ 0.28 1 2 cbr 210 ------- 0 1.0 7.0 48 54
- 0.28 1 2 cbr 210 ------- 0 1.0 7.0 48 54
r 0.28043 1 2 cbr 210 ------- 0 1.0 7.0 45 50
+ 0.28043 2 3 cbr 210 ------- 0 1.0 7.0 45 50
- 0.28043 2 3 cbr 210 ------- 0 1.0 7.0 45 50
r 0.28128 5 7 cbr 210 ------- 0 1.0 7.0 34 38
r 0.28142 2 3 cbr 210 ------- 0 1.0 7.0 42 46
+ 0.28142 3 5 cbr 210 ------- 0 1.0 7.0 42 46
- 0.28142 3 5 cbr 210 ------- 0 1.0 7.0 42 46
r 0.28185 3 5 cbr 210 ------- 0 1.0 7.0 39 43
+ 0.28185 5 7 cbr 210 ------- 0 1.0 7.0 39 43
- 0.28185 5 7 cbr 210 ------- 0 1.0 7.0 39 43
r 0.28352 5 7 cbr 210 ------- 0 1.0 7.0 35 39
+ 0.28375 1 2 cbr 210 ------- 0 1.0 7.0 49 55
- 0.28375 1 2 cbr 210 ------- 0 1.0 7.0 49 55
r 0.28418 1 2 cbr 210 ------- 0 1.0 7.0 46 51
+ 0.28418 2 3 cbr 210 ------- 0 1.0 7.0 46 51
- 0.28418 2 3 cbr 210 ------- 0 1.0 7.0 46 51
r 0.28517 2 3 cbr 210 ------- 0 1.0 7.0 43 48
+ 0.28517 3 5 cbr 210 ------- 0 1.0 7.0 43 48
- 0.28517 3 5 cbr 210 ------- 0 1.0 7.0 43 48
r 0.2856 3 5 cbr 210 ------- 0 1.0 7.0 40 44
+ 0.2856 5 7 cbr 210 ------- 0 1.0 7.0 40 44
- 0.2856 5 7 cbr 210 ------- 0 1.0 7.0 40 44
r 0.28576 5 7 cbr 210 ------- 0 1.0 7.0 36 40
r 0.28696 6 4 ack 40 ------- 0 6.0 0.0 2 53
+ 0.28696 4 3 ack 40 ------- 0 6.0 0.0 2 53
- 0.28696 4 3 ack 40 ------- 0 6.0 0.0 2 53
+ 0.2875 1 2 cbr 210 ------- 0 1.0 7.0 50 56
- 0.2875 1 2 cbr 210 ------- 0 1.0 7.0 50 56
r 0.28793 1 2 cbr 210 ------- 0 1.0 7.0 47 52
+ 0.28793 2 3 cbr 210 ------- 0 1.0 7.0 47 52
- 0.28793 2 3 cbr 210 ------- 0 1.0 7.0 47 52
r 0.288 5 7 cbr 210 ------- 0 1.0 7.0 37 41
r 0.28892 2 3 cbr 210 ------- 0 1.0 7.0 44 49
+ 0.28892 3 5 cbr 210 ------- 0 1.0 7.0 44 49
- 0.28892 3 5 cbr 210 ------- 0 1.0 7.0 44 49
r 0.28935 3 5 cbr 210 ------- 0 1.0 7.0 41 45
+ 0.28935 5 7 cbr 210 ------- 0 1.0 7.0 41 45
- 0.28935 5 7 cbr 210 ------- 0 1.0 7.0 41 45
r 0.289893 3 2 ack 40 ------- 0 6.0 0.0 1 47
+ 0.289893 2 0 ack 40 ------- 0 6.0 0.0 1 47
- 0.289893 2 0 ack 40 ------- 0 6.0 0.0 1 47
r 0.29024 5 7 cbr 210 ------- 0 1.0 7.0 38 42
+ 0.29125 1 2 cbr 210 ------- 0 1.0 7.0 51 57
- 0.29125 1 2 cbr 210 ------- 0 1.0 7.0 51 57
r 0.29168 1 2 cbr 210 ------- 0 1.0 7.0 48 54
+ 0.29168 2 3 cbr 210 ------- 0 1.0 7.0 48 54
- 0.29168 2 3 cbr 210 ------- 0 1.0 7.0 48 54
r 0.29267 2 3 cbr 210 ------- 0 1.0 7.0 45 50
+ 0.29267 3 5 cbr 210 ------- 0 1.0 7.0 45 50
- 0.29267 3 5 cbr 210 ------- 0 1.0 7.0 45 50
r 0.2931 3 5 cbr 210 ------- 0 1.0 7.0 42 46
+ 0.2931 5 7 cbr 210 ------- 0 1.0 7.0 42 46
- 0.2931 5 7 cbr 210 ------- 0 1.0 7.0 42 46
r 0.29353 5 7 cbr 210 ------- 0 1.0 7.0 39 43
+ 0.295 1 2 cbr 210 ------- 0 1.0 7.0 52 58
- 0.295 1 2 cbr 210 ------- 0 1.0 7.0 52 58
r 0.29543 1 2 cbr 210 ------- 0 1.0 7.0 49 55
+ 0.29543 2 3 cbr 210 ------- 0 1.0 7.0 49 55
- 0.29543 2 3 cbr 210 ------- 0 1.0 7.0 49 55
r 0.29642 2 3 cbr 210 ------- 0 1.0 7.0 46 51
+ 0.29642 3 5 cbr 210 ------- 0 1.0 7.0 46 51
- 0.29642 3 5 cbr 210 ------- 0 1.0 7.0 46 51
r 0.29685 3 5 cbr 210 ------- 0 1.0 7.0 43 48
+ 0.29685 5 7 cbr 210 ------- 0 1.0 7.0 43 48
- 0.29685 5 7 cbr 210 ------- 0 1.0 7.0 43 48
r 0.29728 4 3 ack 40 ------- 0 6.0 0.0 2 53
+ 0.29728 3 2 ack 40 ------- 0 6.0 0.0 2 53
- 0.29728 3 2 ack 40 ------- 0 6.0 0.0 2 53
r 0.29728 5 7 cbr 210 ------- 0 1.0 7.0 40 44
+ 0.29875 1 2 cbr 210 ------- 0 1.0 7.0 53 59
- 0.29875 1 2 cbr 210 ------- 0 1.0 7.0 53 59
r 0.29918 1 2 cbr 210 ------- 0 1.0 7.0 50 56
+ 0.29918 2 3 cbr 210 ------- 0 1.0 7.0 50 56
- 0.29918 2 3 cbr 210 ------- 0 1.0 7.0 50 56
r 0.30017 2 3 cbr 210 ------- 0 1.0 7.0 47 52
+ 0.30017 3 5 cbr 210 ------- 0 1.0 7.0 47 52
- 0.30017 3 5 cbr 210 ------- 0 1.0 7.0 47 52
r 0.300213 2 0 ack 40 ------- 0 6.0 0.0 1 47
+ 0.300213 0 2 tcp 1040 ------- 0 0.0 6.0 3 60
- 0.300213 0 2 tcp 1040 ------- 0 0.0 6.0 3 60
+ 0.300213 0 2 tcp 1040 ------- 0 0.0 6.0 4 61
r 0.3006 3 5 cbr 210 ------- 0 1.0 7.0 44 49
+ 0.3006 5 7 cbr 210 ------- 0 1.0 7.0 44 49
- 0.3006 5 7 cbr 210 ------- 0 1.0 7.0 44 49
r 0.30103 5 7 cbr 210 ------- 0 1.0 7.0 41 45
+ 0.3025 1 2 cbr 210 ------- 0 1.0 7.0 54 62
- 0.3025 1 2 cbr 210 ------- 0 1.0 7.0 54 62
r 0.30293 1 2 cbr 210 ------- 0 1.0 7.0 51 57
+ 0.30293 2 3 cbr 210 ------- 0 1.0 7.0 51 57
- 0.30293 2 3 cbr 210 ------- 0 1.0 7.0 51 57
r 0.30392 2 3 cbr 210 ------- 0 1.0 7.0 48 54
+ 0.30392 3 5 cbr 210 ------- 0 1.0 7.0 48 54
- 0.30392 3 5 cbr 210 ------- 0 1.0 7.0 48 54