+ 0.5 2 1 cbr 1000 ------- 0 2.0 0.0 0 0
- 0.5 2 1 cbr 1000 ------- 0 2.0 0.0 0 0
+ 0.508 2 1 cbr 1000 ------- 0 2.0 0.0 1 1
- 0.508 2 1 cbr 1000 ------- 0 2.0 0.0 1 1
+ 0.516 2 1 cbr 1000 ------- 0 2.0 0.0 2 2
- 0.516 2 1 cbr 1000 ------- 0 2.0 0.0 2 2
r 0.518 2 1 cbr 1000 ------- 0 2.0 0.0 0 0
+ 0.518 1 0 cbr 1000 ------- 0 2.0 0.0 0 0
- 0.518 1 0 cbr 1000 ------- 0 2.0 0.0 0 0
+ 0.524 2 1 cbr 1000 ------- 0 2.0 0.0 3 3
- 0.524 2 1 cbr 1000 ------- 0 2.0 0.0 3 3
r 0.526 2 1 cbr 1000 ------- 0 2.0 0.0 1 1
+ 0.526 1 0 cbr 1000 ------- 0 2.0 0.0 1 1
- 0.526 1 0 cbr 1000 ------- 0 2.0 0.0 1 1
+ 0.532 2 1 cbr 1000 ------- 0 2.0 0.0 4 4
- 0.532 2 1 cbr 1000 ------- 0 2.0 0.0 4 4
r 0.534 2 1 cbr 1000 ------- 0 2.0 0.0 2 2
+ 0.534 1 0 cbr 1000 ------- 0 2.0 0.0 2 2
- 0.534 1 0 cbr 1000 ------- 0 2.0 0.0 2 2
r 0.536 1 0 cbr 1000 ------- 0 2.0 0.0 0 0
+ 0.54 2 1 cbr 1000 ------- 0 2.0 0.0 5 5
- 0.54 2 1 cbr 1000 ------- 0 2.0 0.0 5 5
r 0.542 2 1 cbr 1000 ------- 0 2.0 0.0 3 3
+ 0.542 1 0 cbr 1000 ------- 0 2.0 0.0 3 3
- 0.542 1 0 cbr 1000 ------- 0 2.0 0.0 3 3
r 0.544 1 0 cbr 1000 ------- 0 2.0 0.0 1 1
+ 0.548 2 1 cbr 1000 ------- 0 2.0 0.0 6 6
- 0.548 2 1 cbr 1000 ------- 0 2.0 0.0 6 6
r 0.55 2 1 cbr 1000 ------- 0 2.0 0.0 4 4
+ 0.55 1 0 cbr 1000 ------- 0 2.0 0.0 4 4
- 0.55 1 0 cbr 1000 ------- 0 2.0 0.0 4 4
r 0.552 1 0 cbr 1000 ------- 0 2.0 0.0 2 2
+ 0.556 2 1 cbr 1000 ------- 0 2.0 0.0 7 7
- 0.556 2 1 cbr 1000 ------- 0 2.0 0.0 7 7
r 0.558 2 1 cbr 1000 ------- 0 2.0 0.0 5 5
+ 0.558 1 0 cbr 1000 ------- 0 2.0 0.0 5 5
- 0.558 1 0 cbr 1000 ------- 0 2.0 0.0 5 5
r 0.56 1 0 cbr 1000 ------- 0 2.0 0.0 3 3
+ 0.564 2 1 cbr 1000 ------- 0 2.0 0.0 8 8
- 0.564 2 1 cbr 1000 ------- 0 2.0 0.0 8 8
r 0.566 2 1 cbr 1000 ------- 0 2.0 0.0 6 6
+ 0.566 1 0 cbr 1000 ------- 0 2.0 0.0 6 6
- 0.566 1 0 cbr 1000 ------- 0 2.0 0.0 6 6
r 0.568 1 0 cbr 1000 ------- 0 2.0 0.0 4 4
+ 0.572 2 1 cbr 1000 ------- 0 2.0 0.0 9 9
- 0.572 2 1 cbr 1000 ------- 0 2.0 0.0 9 9
r 0.574 2 1 cbr 1000 ------- 0 2.0 0.0 7 7
+ 0.574 1 0 cbr 1000 ------- 0 2.0 0.0 7 7
- 0.574 1 0 cbr 1000 ------- 0 2.0 0.0 7 7
r 0.576 1 0 cbr 1000 ------- 0 2.0 0.0 5 5
+ 0.58 2 1 cbr 1000 ------- 0 2.0 0.0 10 10
- 0.58 2 1 cbr 1000 ------- 0 2.0 0.0 10 10
r 0.582 2 1 cbr 1000 ------- 0 2.0 0.0 8 8
+ 0.582 1 0 cbr 1000 ------- 0 2.0 0.0 8 8
- 0.582 1 0 cbr 1000 ------- 0 2.0 0.0 8 8
r 0.584 1 0 cbr 1000 ------- 0 2.0 0.0 6 6
+ 0.588 2 1 cbr 1000 ------- 0 2.0 0.0 11 11
- 0.588 2 1 cbr 1000 ------- 0 2.0 0.0 11 11
r 0.59 2 1 cbr 1000 ------- 0 2.0 0.0 9 9
+ 0.59 1 0 cbr 1000 ------- 0 2.0 0.0 9 9
- 0.59 1 0 cbr 1000 ------- 0 2.0 0.0 9 9
r 0.592 1 0 cbr 1000 ------- 0 2.0 0.0 7 7
+ 0.596 2 1 cbr 1000 ------- 0 2.0 0.0 12 12
- 0.596 2 1 cbr 1000 ------- 0 2.0 0.0 12 12
r 0.598 2 1 cbr 1000 ------- 0 2.0 0.0 10 10
+ 0.598 1 0 cbr 1000 ------- 0 2.0 0.0 10 10
- 0.598 1 0 cbr 1000 ------- 0 2.0 0.0 10 10
r 0.6 1 0 cbr 1000 ------- 0 2.0 0.0 8 8
+ 0.604 2 1 cbr 1000 ------- 0 2.0 0.0 13 13
- 0.604 2 1 cbr 1000 ------- 0 2.0 0.0 13 13
r 0.606 2 1 cbr 1000 ------- 0 2.0 0.0 11 11
+ 0.606 1 0 cbr 1000 ------- 0 2.0 0.0 11 11
- 0.606 1 0 cbr 1000 ------- 0 2.0 0.0 11 11
r 0.608 1 0 cbr 1000 ------- 0 2.0 0.0 9 9
+ 0.612 2 1 cbr 1000 ------- 0 2.0 0.0 14 14
- 0.612 2 1 cbr 1000 ------- 0 2.0 0.0 14 14
r 0.614 2 1 cbr 1000 ------- 0 2.0 0.0 12 12
+ 0.614 1 0 cbr 1000 ------- 0 2.0 0.0 12 12
- 0.614 1 0 cbr 1000 ------- 0 2.0 0.0 12 12
r 0.616 1 0 cbr 1000 ------- 0 2.0 0.0 10 10
+ 0.62 2 1 cbr 1000 ------- 0 2.0 0.0 15 15
- 0.62 2 1 cbr 1000 ------- 0 2.0 0.0 15 15
r 0.622 2 1 cbr 1000 ------- 0 2.0 0.0 13 13
+ 0.622 1 0 cbr 1000 ------- 0 2.0 0.0 13 13
- 0.622 1 0 cbr 1000 ------- 0 2.0 0.0 13 13
r 0.624 1 0 cbr 1000 ------- 0 2.0 0.0 11 11
+ 0.628 2 1 cbr 1000 ------- 0 2.0 0.0 16 16
- 0.628 2 1 cbr 1000 ------- 0 2.0 0.0 16 16
r 0.63 2 1 cbr 1000 ------- 0 2.0 0.0 14 14
+ 0.63 1 0 cbr 1000 ------- 0 2.0 0.0 14 14
- 0.63 1 0 cbr 1000 ------- 0 2.0 0.0 14 14
r 0.632 1 0 cbr 1000 ------- 0 2.0 0.0 12 12
+ 0.636 2 1 cbr 1000 ------- 0 2.0 0.0 17 17
- 0.636 2 1 cbr 1000 ------- 0 2.0 0.0 17 17
r 0.638 2 1 cbr 1000 ------- 0 2.0 0.0 15 15
+ 0.638 1 0 cbr 1000 ------- 0 2.0 0.0 15 15
- 0.638 1 0 cbr 1000 ------- 0 2.0 0.0 15 15
r 0.64 1 0 cbr 1000 ------- 0 2.0 0.0 13 13
+ 0.644 2 1 cbr 1000 ------- 0 2.0 0.0 18 18
- 0.644 2 1 cbr 1000 ------- 0 2.0 0.0 18 18
r 0.646 2 1 cbr 1000 ------- 0 2.0 0.0 16 16
+ 0.646 1 0 cbr 1000 ------- 0 2.0 0.0 16 16
- 0.646 1 0 cbr 1000 ------- 0 2.0 0.0 16 16
r 0.648 1 0 cbr 1000 ------- 0 2.0 0.0 14 14
+ 0.652 2 1 cbr 1000 ------- 0 2.0 0.0 19 19
- 0.652 2 1 cbr 1000 ------- 0 2.0 0.0 19 19
r 0.654 2 1 cbr 1000 ------- 0 2.0 0.0 17 17
+ 0.654 1 0 cbr 1000 ------- 0 2.0 0.0 17 17
- 0.654 1 0 cbr 1000 ------- 0 2.0 0.0 17 17
r 0.656 1 0 cbr 1000 ------- 0 2.0 0.0 15 15
+ 0.66 2 1 cbr 1000 ------- 0 2.0 0.0 20 20
- 0.66 2 1 cbr 1000 ------- 0 2.0 0.0 20 20
r 0.662 2 1 cbr 1000 ------- 0 2.0 0.0 18 18
+ 0.662 1 0 cbr 1000 ------- 0 2.0 0.0 18 18
- 0.662 1 0 cbr 1000 ------- 0 2.0 0.0 18 18
r 0.664 1 0 cbr 1000 ------- 0 2.0 0.0 16 16
+ 0.668 2 1 cbr 1000 ------- 0 2.0 0.0 21 21
- 0.668 2 1 cbr 1000 ------- 0 2.0 0.0 21 21
r 0.67 2 1 cbr 1000 ------- 0 2.0 0.0 19 19
+ 0.67 1 0 cbr 1000 ------- 0 2.0 0.0 19 19
- 0.67 1 0 cbr 1000 ------- 0 2.0 0.0 19 19
r 0.672 1 0 cbr 1000 ------- 0 2.0 0.0 17 17
+ 0.676 2 1 cbr 1000 ------- 0 2.0 0.0 22 22
- 0.676 2 1 cbr 1000 ------- 0 2.0 0.0 22 22
r 0.678 2 1 cbr 1000 ------- 0 2.0 0.0 20 20
+ 0.678 1 0 cbr 1000 ------- 0 2.0 0.0 20 20
- 0.678 1 0 cbr 1000 ------- 0 2.0 0.0 20 20
r 0.68 1 0 cbr 1000 ------- 0 2.0 0.0 18 18
+ 0.684 2 1 cbr 1000 ------- 0 2.0 0.0 23 23
- 0.684 2 1 cbr 1000 ------- 0 2.0 0.0 23 23
r 0.686 2 1 cbr 1000 ------- 0 2.0 0.0 21 21
+ 0.686 1 0 cbr 1000 ------- 0 2.0 0.0 21 21
- 0.686 1 0 cbr 1000 ------- 0 2.0 0.0 21 21
r 0.688 1 0 cbr 1000 ------- 0 2.0 0.0 19 19
+ 0.692 2 1 cbr 1000 ------- 0 2.0 0.0 24 24
- 0.692 2 1 cbr 1000 ------- 0 2.0 0.0 24 24
r 0.694 2 1 cbr 1000 ------- 0 2.0 0.0 22 22
+ 0.694 1 0 cbr 1000 ------- 0 2.0 0.0 22 22
- 0.694 1 0 cbr 1000 ------- 0 2.0 0.0 22 22
r 0.696 1 0 cbr 1000 ------- 0 2.0 0.0 20 20
+ 0.7 2 1 cbr 1000 ------- 0 2.0 0.0 25 25
- 0.7 2 1 cbr 1000 ------- 0 2.0 0.0 25 25
r 0.702 2 1 cbr 1000 ------- 0 2.0 0.0 23 23
+ 0.702 1 0 cbr 1000 ------- 0 2.0 0.0 23 23
- 0.702 1 0 cbr 1000 ------- 0 2.0 0.0 23 23
r 0.704 1 0 cbr 1000 ------- 0 2.0 0.0 21 21
+ 0.708 2 1 cbr 1000 ------- 0 2.0 0.0 26 26
- 0.708 2 1 cbr 1000 ------- 0 2.0 0.0 26 26
r 0.71 2 1 cbr 1000 ------- 0 2.0 0.0 24 24
+ 0.71 1 0 cbr 1000 ------- 0 2.0 0.0 24 24
- 0.71 1 0 cbr 1000 ------- 0 2.0 0.0 24 24
r 0.712 1 0 cbr 1000 ------- 0 2.0 0.0 22 22
+ 0.716 2 1 cbr 1000 ------- 0 2.0 0.0 27 27
- 0.716 2 1 cbr 1000 ------- 0 2.0 0.0 27 27
r 0.718 2 1 cbr 1000 ------- 0 2.0 0.0 25 25
+ 0.718 1 0 cbr 1000 ------- 0 2.0 0.0 25 25
- 0.718 1 0 cbr 1000 ------- 0 2.0 0.0 25 25
r 0.72 1 0 cbr 1000 ------- 0 2.0 0.0 23 23
+ 0.724 2 1 cbr 1000 ------- 0 2.0 0.0 28 28
- 0.724 2 1 cbr 1000 ------- 0 2.0 0.0 28 28
r 0.726 2 1 cbr 1000 ------- 0 2.0 0.0 26 26
+ 0.726 1 0 cbr 1000 ------- 0 2.0 0.0 26 26
- 0.726 1 0 cbr 1000 ------- 0 2.0 0.0 26 26
r 0.728 1 0 cbr 1000 ------- 0 2.0 0.0 24 24
+ 0.732 2 1 cbr 1000 ------- 0 2.0 0.0 29 29
- 0.732 2 1 cbr 1000 ------- 0 2.0 0.0 29 29
r 0.734 2 1 cbr 1000 ------- 0 2.0 0.0 27 27
+ 0.734 1 0 cbr 1000 ------- 0 2.0 0.0 27 27
- 0.734 1 0 cbr 1000 ------- 0 2.0 0.0 27 27
r 0.736 1 0 cbr 1000 ------- 0 2.0 0.0 25 25
+ 0.74 2 1 cbr 1000 ------- 0 2.0 0.0 30 30
- 0.74 2 1 cbr 1000 ------- 0 2.0 0.0 30 30
r 0.742 2 1 cbr 1000 ------- 0 2.0 0.0 28 28
+ 0.742 1 0 cbr 1000 ------- 0 2.0 0.0 28 28
- 0.742 1 0 cbr 1000 ------- 0 2.0 0.0 28 28
r 0.744 1 0 cbr 1000 ------- 0 2.0 0.0 26 26
+ 0.748 2 1 cbr 1000 ------- 0 2.0 0.0 31 31
- 0.748 2 1 cbr 1000 ------- 0 2.0 0.0 31 31
r 0.75 2 1 cbr 1000 ------- 0 2.0 0.0 29 29
+ 0.75 1 0 cbr 1000 ------- 0 2.0 0.0 29 29
- 0.75 1 0 cbr 1000 ------- 0 2.0 0.0 29 29
r 0.752 1 0 cbr 1000 ------- 0 2.0 0.0 27 27
+ 0.756 2 1 cbr 1000 ------- 0 2.0 0.0 32 32
- 0.756 2 1 cbr 1000 ------- 0 2.0 0.0 32 32
r 0.758 2 1 cbr 1000 ------- 0 2.0 0.0 30 30
+ 0.758 1 0 cbr 1000 ------- 0 2.0 0.0 30 30
- 0.758 1 0 cbr 1000 ------- 0 2.0 0.0 30 30
r 0.76 1 0 cbr 1000 ------- 0 2.0 0.0 28 28
+ 0.764 2 1 cbr 1000 ------- 0 2.0 0.0 33 33
- 0.764 2 1 cbr 1000 ------- 0 2.0 0.0 33 33
r 0.766 2 1 cbr 1000 ------- 0 2.0 0.0 31 31
+ 0.766 1 0 cbr 1000 ------- 0 2.0 0.0 31 31
- 0.766 1 0 cbr 1000 ------- 0 2.0 0.0 31 31
r 0.768 1 0 cbr 1000 ------- 0 2.0 0.0 29 29
+ 0.772 2 1 cbr 1000 ------- 0 2.0 0.0 34 34
- 0.772 2 1 cbr 1000 ------- 0 2.0 0.0 34 34
r 0.774 2 1 cbr 1000 ------- 0 2.0 0.0 32 32
+ 0.774 1 0 cbr 1000 ------- 0 2.0 0.0 32 32
- 0.774 1 0 cbr 1000 ------- 0 2.0 0.0 32 32
r 0.776 1 0 cbr 1000 ------- 0 2.0 0.0 30 30
+ 0.78 2 1 cbr 1000 ------- 0 2.0 0.0 35 35
- 0.78 2 1 cbr 1000 ------- 0 2.0 0.0 35 35
r 0.782 2 1 cbr 1000 ------- 0 2.0 0.0 33 33
+ 0.782 1 0 cbr 1000 ------- 0 2.0 0.0 33 33
- 0.782 1 0 cbr 1000 ------- 0 2.0 0.0 33 33
r 0.784 1 0 cbr 1000 ------- 0 2.0 0.0 31 31
+ 0.788 2 1 cbr 1000 ------- 0 2.0 0.0 36 36
- 0.788 2 1 cbr 1000 ------- 0 2.0 0.0 36 36
r 0.79 2 1 cbr 1000 ------- 0 2.0 0.0 34 34
+ 0.79 1 0 cbr 1000 ------- 0 2.0 0.0 34 34
- 0.79 1 0 cbr 1000 ------- 0 2.0 0.0 34 34
r 0.792 1 0 cbr 1000 ------- 0 2.0 0.0 32 32
+ 0.796 2 1 cbr 1000 ------- 0 2.0 0.0 37 37
- 0.796 2 1 cbr 1000 ------- 0 2.0 0.0 37 37
r 0.798 2 1 cbr 1000 ------- 0 2.0 0.0 35 35
+ 0.798 1 0 cbr 1000 ------- 0 2.0 0.0 35 35
- 0.798 1 0 cbr 1000 ------- 0 2.0 0.0 35 35
r 0.8 1 0 cbr 1000 ------- 0 2.0 0.0 33 33
+ 0.804 2 1 cbr 1000 ------- 0 2.0 0.0 38 38
- 0.804 2 1 cbr 1000 ------- 0 2.0 0.0 38 38
r 0.806 2 1 cbr 1000 ------- 0 2.0 0.0 36 36
+ 0.806 1 0 cbr 1000 ------- 0 2.0 0.0 36 36
- 0.806 1 0 cbr 1000 ------- 0 2.0 0.0 36 36
r 0.808 1 0 cbr 1000 ------- 0 2.0 0.0 34 34
+ 0.812 2 1 cbr 1000 ------- 0 2.0 0.0 39 39
- 0.812 2 1 cbr 1000 ------- 0 2.0 0.0 39 39
r 0.814 2 1 cbr 1000 ------- 0 2.0 0.0 37 37
+ 0.814 1 0 cbr 1000 ------- 0 2.0 0.0 37 37
- 0.814 1 0 cbr 1000 ------- 0 2.0 0.0 37 37
r 0.816 1 0 cbr 1000 ------- 0 2.0 0.0 35 35
+ 0.82 2 1 cbr 1000 ------- 0 2.0 0.0 40 40
- 0.82 2 1 cbr 1000 ------- 0 2.0 0.0 40 40
r 0.822 2 1 cbr 1000 ------- 0 2.0 0.0 38 38
+ 0.822 1 0 cbr 1000 ------- 0 2.0 0.0 38 38
- 0.822 1 0 cbr 1000 ------- 0 2.0 0.0 38 38
r 0.824 1 0 cbr 1000 ------- 0 2.0 0.0 36 36
+ 0.828 2 1 cbr 1000 ------- 0 2.0 0.0 41 41
- 0.828 2 1 cbr 1000 ------- 0 2.0 0.0 41 41
r 0.83 2 1 cbr 1000 ------- 0 2.0 0.0 39 39
+ 0.83 1 0 cbr 1000 ------- 0 2.0 0.0 39 39
- 0.83 1 0 cbr 1000 ------- 0 2.0 0.0 39 39
r 0.832 1 0 cbr 1000 ------- 0 2.0 0.0 37 37
+ 0.836 2 1 cbr 1000 ------- 0 2.0 0.0 42 42
- 0.836 2 1 cbr 1000 ------- 0 2.0 0.0 42 42
r 0.838 2 1 cbr 1000 ------- 0 2.0 0.0 40 40
+ 0.838 1 0 cbr 1000 ------- 0 2.0 0.0 40 40
- 0.838 1 0 cbr 1000 ------- 0 2.0 0.0 40 40
r 0.84 1 0 cbr 1000 ------- 0 2.0 0.0 38 38
+ 0.844 2 1 cbr 1000 ------- 0 2.0 0.0 43 43
- 0.844 2 1 cbr 1000 ------- 0 2.0 0.0 43 43
r 0.846 2 1 cbr 1000 ------- 0 2.0 0.0 41 41
+ 0.846 1 0 cbr 1000 ------- 0 2.0 0.0 41 41
- 0.846 1 0 cbr 1000 ------- 0 2.0 0.0 41 41
r 0.848 1 0 cbr 1000 ------- 0 2.0 0.0 39 39
+ 0.852 2 1 cbr 1000 ------- 0 2.0 0.0 44 44
- 0.852 2 1 cbr 1000 ------- 0 2.0 0.0 44 44
r 0.854 2 1 cbr 1000 ------- 0 2.0 0.0 42 42
+ 0.854 1 0 cbr 1000 ------- 0 2.0 0.0 42 42
- 0.854 1 0 cbr 1000 ------- 0 2.0 0.0 42 42
r 0.856 1 0 cbr 1000 ------- 0 2.0 0.0 40 40
+ 0.86 2 1 cbr 1000 ------- 0 2.0 0.0 45 45
- 0.86 2 1 cbr 1000 ------- 0 2.0 0.0 45 45
r 0.862 2 1 cbr 1000 ------- 0 2.0 0.0 43 43
+ 0.862 1 0 cbr 1000 ------- 0 2.0 0.0 43 43
- 0.862 1 0 cbr 1000 ------- 0 2.0 0.0 43 43
r 0.864 1 0 cbr 1000 ------- 0 2.0 0.0 41 41
+ 0.868 2 1 cbr 1000 ------- 0 2.0 0.0 46 46
- 0.868 2 1 cbr 1000 ------- 0 2.0 0.0 46 46
r 0.87 2 1 cbr 1000 ------- 0 2.0 0.0 44 44
+ 0.87 1 0 cbr 1000 ------- 0 2.0 0.0 44 44
- 0.87 1 0 cbr 1000 ------- 0 2.0 0.0 44 44
r 0.872 1 0 cbr 1000 ------- 0 2.0 0.0 42 42
+ 0.876 2 1 cbr 1000 ------- 0 2.0 0.0 47 47
- 0.876 2 1 cbr 1000 ------- 0 2.0 0.0 47 47
r 0.878 2 1 cbr 1000 ------- 0 2.0 0.0 45 45
+ 0.878 1 0 cbr 1000 ------- 0 2.0 0.0 45 45
- 0.878 1 0 cbr 1000 ------- 0 2.0 0.0 45 45
r 0.88 1 0 cbr 1000 ------- 0 2.0 0.0 43 43
+ 0.884 2 1 cbr 1000 ------- 0 2.0 0.0 48 48
- 0.884 2 1 cbr 1000 ------- 0 2.0 0.0 48 48
r 0.886 2 1 cbr 1000 ------- 0 2.0 0.0 46 46
+ 0.886 1 0 cbr 1000 ------- 0 2.0 0.0 46 46
- 0.886 1 0 cbr 1000 ------- 0 2.0 0.0 46 46
r 0.888 1 0 cbr 1000 ------- 0 2.0 0.0 44 44
+ 0.892 2 1 cbr 1000 ------- 0 2.0 0.0 49 49
- 0.892 2 1 cbr 1000 ------- 0 2.0 0.0 49 49
r 0.894 2 1 cbr 1000 ------- 0 2.0 0.0 47 47
+ 0.894 1 0 cbr 1000 ------- 0 2.0 0.0 47 47
- 0.894 1 0 cbr 1000 ------- 0 2.0 0.0 47 47
r 0.896 1 0 cbr 1000 ------- 0 2.0 0.0 45 45
+ 0.9 2 1 cbr 1000 ------- 0 2.0 0.0 50 50
- 0.9 2 1 cbr 1000 ------- 0 2.0 0.0 50 50
r 0.902 2 1 cbr 1000 ------- 0 2.0 0.0 48 48
+ 0.902 1 0 cbr 1000 ------- 0 2.0 0.0 48 48
- 0.902 1 0 cbr 1000 ------- 0 2.0 0.0 48 48
r 0.904 1 0 cbr 1000 ------- 0 2.0 0.0 46 46
+ 0.908 2 1 cbr 1000 ------- 0 2.0 0.0 51 51
- 0.908 2 1 cbr 1000 ------- 0 2.0 0.0 51 51
r 0.91 2 1 cbr 1000 ------- 0 2.0 0.0 49 49
+ 0.91 1 0 cbr 1000 ------- 0 2.0 0.0 49 49
- 0.91 1 0 cbr 1000 ------- 0 2.0 0.0 49 49
r 0.912 1 0 cbr 1000 ------- 0 2.0 0.0 47 47
+ 0.916 2 1 cbr 1000 ------- 0 2.0 0.0 52 52
- 0.916 2 1 cbr 1000 ------- 0 2.0 0.0 52 52
r 0.918 2 1 cbr 1000 ------- 0 2.0 0.0 50 50
+ 0.918 1 0 cbr 1000 ------- 0 2.0 0.0 50 50
- 0.918 1 0 cbr 1000 ------- 0 2.0 0.0 50 50
r 0.92 1 0 cbr 1000 ------- 0 2.0 0.0 48 48
+ 0.924 2 1 cbr 1000 ------- 0 2.0 0.0 53 53
- 0.924 2 1 cbr 1000 ------- 0 2.0 0.0 53 53
r 0.926 2 1 cbr 1000 ------- 0 2.0 0.0 51 51
+ 0.926 1 0 cbr 1000 ------- 0 2.0 0.0 51 51
- 0.926 1 0 cbr 1000 ------- 0 2.0 0.0 51 51
r 0.928 1 0 cbr 1000 ------- 0 2.0 0.0 49 49
+ 0.932 2 1 cbr 1000 ------- 0 2.0 0.0 54 54
- 0.932 2 1 cbr 1000 ------- 0 2.0 0.0 54 54
r 0.934 2 1 cbr 1000 ------- 0 2.0 0.0 52 52
+ 0.934 1 0 cbr 1000 ------- 0 2.0 0.0 52 52
- 0.934 1 0 cbr 1000 ------- 0 2.0 0.0 52 52
r 0.936 1 0 cbr 1000 ------- 0 2.0 0.0 50 50
+ 0.94 2 1 cbr 1000 ------- 0 2.0 0.0 55 55
- 0.94 2 1 cbr 1000 ------- 0 2.0 0.0 55 55
r 0.942 2 1 cbr 1000 ------- 0 2.0 0.0 53 53
+ 0.942 1 0 cbr 1000 ------- 0 2.0 0.0 53 53
- 0.942 1 0 cbr 1000 ------- 0 2.0 0.0 53 53
r 0.944 1 0 cbr 1000 ------- 0 2.0 0.0 51 51
+ 0.948 2 1 cbr 1000 ------- 0 2.0 0.0 56 56
- 0.948 2 1 cbr 1000 ------- 0 2.0 0.0 56 56
r 0.95 2 1 cbr 1000 ------- 0 2.0 0.0 54 54
+ 0.95 1 0 cbr 1000 ------- 0 2.0 0.0 54 54
- 0.95 1 0 cbr 1000 ------- 0 2.0 0.0 54 54
r 0.952 1 0 cbr 1000 ------- 0 2.0 0.0 52 52
+ 0.956 2 1 cbr 1000 ------- 0 2.0 0.0 57 57
- 0.956 2 1 cbr 1000 ------- 0 2.0 0.0 57 57
r 0.958 2 1 cbr 1000 ------- 0 2.0 0.0 55 55
+ 0.958 1 0 cbr 1000 ------- 0 2.0 0.0 55 55
- 0.958 1 0 cbr 1000 ------- 0 2.0 0.0 55 55
r 0.96 1 0 cbr 1000 ------- 0 2.0 0.0 53 53
+ 0.964 2 1 cbr 1000 ------- 0 2.0 0.0 58 58
- 0.964 2 1 cbr 1000 ------- 0 2.0 0.0 58 58
r 0.966 2 1 cbr 1000 ------- 0 2.0 0.0 56 56
+ 0.966 1 0 cbr 1000 ------- 0 2.0 0.0 56 56
- 0.966 1 0 cbr 1000 ------- 0 2.0 0.0 56 56
r 0.968 1 0 cbr 1000 ------- 0 2.0 0.0 54 54
+ 0.972 2 1 cbr 1000 ------- 0 2.0 0.0 59 59
- 0.972 2 1 cbr 1000 ------- 0 2.0 0.0 59 59
r 0.974 2 1 cbr 1000 ------- 0 2.0 0.0 57 57
+ 0.974 1 0 cbr 1000 ------- 0 2.0 0.0 57 57
- 0.974 1 0 cbr 1000 ------- 0 2.0 0.0 57 57
r 0.976 1 0 cbr 1000 ------- 0 2.0 0.0 55 55
+ 0.98 2 1 cbr 1000 ------- 0 2.0 0.0 60 60
- 0.98 2 1 cbr 1000 ------- 0 2.0 0.0 60 60
r 0.982 2 1 cbr 1000 ------- 0 2.0 0.0 58 58
+ 0.982 1 0 cbr 1000 ------- 0 2.0 0.0 58 58
- 0.982 1 0 cbr 1000 ------- 0 2.0 0.0 58 58
r 0.984 1 0 cbr 1000 ------- 0 2.0 0.0 56 56
+ 0.988 2 1 cbr 1000 ------- 0 2.0 0.0 61 61
- 0.988 2 1 cbr 1000 ------- 0 2.0 0.0 61 61
r 0.99 2 1 cbr 1000 ------- 0 2.0 0.0 59 59
+ 0.99 1 0 cbr 1000 ------- 0 2.0 0.0 59 59
- 0.99 1 0 cbr 1000 ------- 0 2.0 0.0 59 59
r 0.992 1 0 cbr 1000 ------- 0 2.0 0.0 57 57
+ 0.996 2 1 cbr 1000 ------- 0 2.0 0.0 62 62
- 0.996 2 1 cbr 1000 ------- 0 2.0 0.0 62 62
r 0.998 2 1 cbr 1000 ------- 0 2.0 0.0 60 60
+ 0.998 1 0 cbr 1000 ------- 0 2.0 0.0 60 60
- 0.998 1 0 cbr 1000 ------- 0 2.0 0.0 60 60
r 1 1 0 cbr 1000 ------- 0 2.0 0.0 58 58
+ 1.004 2 1 cbr 1000 ------- 0 2.0 0.0 63 63
- 1.004 2 1 cbr 1000 ------- 0 2.0 0.0 63 63
r 1.006 2 1 cbr 1000 ------- 0 2.0 0.0 61 61
+ 1.006 1 0 cbr 1000 ------- 0 2.0 0.0 61 61
- 1.006 1 0 cbr 1000 ------- 0 2.0 0.0 61 61
r 1.008 1 0 cbr 1000 ------- 0 2.0 0.0 59 59
+ 1.012 2 1 cbr 1000 ------- 0 2.0 0.0 64 64
- 1.012 2 1 cbr 1000 ------- 0 2.0 0.0 64 64
r 1.014 2 1 cbr 1000 ------- 0 2.0 0.0 62 62
+ 1.014 1 0 cbr 1000 ------- 0 2.0 0.0 62 62
- 1.014 1 0 cbr 1000 ------- 0 2.0 0.0 62 62
r 1.016 1 0 cbr 1000 ------- 0 2.0 0.0 60 60
+ 1.02 2 1 cbr 1000 ------- 0 2.0 0.0 65 65
- 1.02 2 1 cbr 1000 ------- 0 2.0 0.0 65 65
r 1.022 2 1 cbr 1000 ------- 0 2.0 0.0 63 63
+ 1.022 1 0 cbr 1000 ------- 0 2.0 0.0 63 63
- 1.022 1 0 cbr 1000 ------- 0 2.0 0.0 63 63
r 1.024 1 0 cbr 1000 ------- 0 2.0 0.0 61 61
+ 1.028 2 1 cbr 1000 ------- 0 2.0 0.0 66 66
- 1.028 2 1 cbr 1000 ------- 0 2.0 0.0 66 66
r 1.03 2 1 cbr 1000 ------- 0 2.0 0.0 64 64
+ 1.03 1 0 cbr 1000 ------- 0 2.0 0.0 64 64
- 1.03 1 0 cbr 1000 ------- 0 2.0 0.0 64 64
r 1.032 1 0 cbr 1000 ------- 0 2.0 0.0 62 62
+ 1.036 2 1 cbr 1000 ------- 0 2.0 0.0 67 67
- 1.036 2 1 cbr 1000 ------- 0 2.0 0.0 67 67
r 1.038 2 1 cbr 1000 ------- 0 2.0 0.0 65 65
+ 1.038 1 0 cbr 1000 ------- 0 2.0 0.0 65 65
- 1.038 1 0 cbr 1000 ------- 0 2.0 0.0 65 65
r 1.04 1 0 cbr 1000 ------- 0 2.0 0.0 63 63
+ 1.044 2 1 cbr 1000 ------- 0 2.0 0.0 68 68
- 1.044 2 1 cbr 1000 ------- 0 2.0 0.0 68 68
r 1.046 2 1 cbr 1000 ------- 0 2.0 0.0 66 66
+ 1.046 1 0 cbr 1000 ------- 0 2.0 0.0 66 66
- 1.046 1 0 cbr 1000 ------- 0 2.0 0.0 66 66
r 1.048 1 0 cbr 1000 ------- 0 2.0 0.0 64 64
+ 1.052 2 1 cbr 1000 ------- 0 2.0 0.0 69 69
- 1.052 2 1 cbr 1000 ------- 0 2.0 0.0 69 69
r 1.054 2 1 cbr 1000 ------- 0 2.0 0.0 67 67
+ 1.054 1 0 cbr 1000 ------- 0 2.0 0.0 67 67
- 1.054 1 0 cbr 1000 ------- 0 2.0 0.0 67 67
r 1.056 1 0 cbr 1000 ------- 0 2.0 0.0 65 65
+ 1.06 2 1 cbr 1000 ------- 0 2.0 0.0 70 70
- 1.06 2 1 cbr 1000 ------- 0 2.0 0.0 70 70
r 1.062 2 1 cbr 1000 ------- 0 2.0 0.0 68 68
+ 1.062 1 0 cbr 1000 ------- 0 2.0 0.0 68 68
- 1.062 1 0 cbr 1000 ------- 0 2.0 0.0 68 68
r 1.064 1 0 cbr 1000 ------- 0 2.0 0.0 66 66
+ 1.068 2 1 cbr 1000 ------- 0 2.0 0.0 71 71
- 1.068 2 1 cbr 1000 ------- 0 2.0 0.0 71 71
r 1.07 2 1 cbr 1000 ------- 0 2.0 0.0 69 69
+ 1.07 1 0 cbr 1000 ------- 0 2.0 0.0 69 69
- 1.07 1 0 cbr 1000 ------- 0 2.0 0.0 69 69
r 1.072 1 0 cbr 1000 ------- 0 2.0 0.0 67 67
+ 1.076 2 1 cbr 1000 ------- 0 2.0 0.0 72 72
- 1.076 2 1 cbr 1000 ------- 0 2.0 0.0 72 72
r 1.078 2 1 cbr 1000 ------- 0 2.0 0.0 70 70
+ 1.078 1 0 cbr 1000 ------- 0 2.0 0.0 70 70
- 1.078 1 0 cbr 1000 ------- 0 2.0 0.0 70 70
r 1.08 1 0 cbr 1000 ------- 0 2.0 0.0 68 68
+ 1.084 2 1 cbr 1000 ------- 0 2.0 0.0 73 73
- 1.084 2 1 cbr 1000 ------- 0 2.0 0.0 73 73
r 1.086 2 1 cbr 1000 ------- 0 2.0 0.0 71 71
+ 1.086 1 0 cbr 1000 ------- 0 2.0 0.0 71 71
- 1.086 1 0 cbr 1000 ------- 0 2.0 0.0 71 71
r 1.088 1 0 cbr 1000 ------- 0 2.0 0.0 69 69
+ 1.092 2 1 cbr 1000 ------- 0 2.0 0.0 74 74
- 1.092 2 1 cbr 1000 ------- 0 2.0 0.0 74 74
r 1.094 2 1 cbr 1000 ------- 0 2.0 0.0 72 72
+ 1.094 1 0 cbr 1000 ------- 0 2.0 0.0 72 72
- 1.094 1 0 cbr 1000 ------- 0 2.0 0.0 72 72
r 1.096 1 0 cbr 1000 ------- 0 2.0 0.0 70 70
+ 1.1 2 1 cbr 1000 ------- 0 2.0 0.0 75 75
- 1.1 2 1 cbr 1000 ------- 0 2.0 0.0 75 75
r 1.102 2 1 cbr 1000 ------- 0 2.0 0.0 73 73
+ 1.102 1 0 cbr 1000 ------- 0 2.0 0.0 73 73
- 1.102 1 0 cbr 1000 ------- 0 2.0 0.0 73 73
r 1.104 1 0 cbr 1000 ------- 0 2.0 0.0 71 71
+ 1.108 2 1 cbr 1000 ------- 0 2.0 0.0 76 76
- 1.108 2 1 cbr 1000 ------- 0 2.0 0.0 76 76
r 1.11 2 1 cbr 1000 ------- 0 2.0 0.0 74 74
+ 1.11 1 0 cbr 1000 ------- 0 2.0 0.0 74 74
- 1.11 1 0 cbr 1000 ------- 0 2.0 0.0 74 74
r 1.112 1 0 cbr 1000 ------- 0 2.0 0.0 72 72
+ 1.116 2 1 cbr 1000 ------- 0 2.0 0.0 77 77
- 1.116 2 1 cbr 1000 ------- 0 2.0 0.0 77 77
r 1.118 2 1 cbr 1000 ------- 0 2.0 0.0 75 75
+ 1.118 1 0 cbr 1000 ------- 0 2.0 0.0 75 75
- 1.118 1 0 cbr 1000 ------- 0 2.0 0.0 75 75
r 1.12 1 0 cbr 1000 ------- 0 2.0 0.0 73 73
+ 1.124 2 1 cbr 1000 ------- 0 2.0 0.0 78 78
- 1.124 2 1 cbr 1000 ------- 0 2.0 0.0 78 78
r 1.126 2 1 cbr 1000 ------- 0 2.0 0.0 76 76
+ 1.126 1 0 cbr 1000 ------- 0 2.0 0.0 76 76
- 1.126 1 0 cbr 1000 ------- 0 2.0 0.0 76 76
r 1.128 1 0 cbr 1000 ------- 0 2.0 0.0 74 74
+ 1.132 2 1 cbr 1000 ------- 0 2.0 0.0 79 79
- 1.132 2 1 cbr 1000 ------- 0 2.0 0.0 79 79
r 1.134 2 1 cbr 1000 ------- 0 2.0 0.0 77 77
+ 1.134 1 0 cbr 1000 ------- 0 2.0 0.0 77 77
- 1.134 1 0 cbr 1000 ------- 0 2.0 0.0 77 77
r 1.136 1 0 cbr 1000 ------- 0 2.0 0.0 75 75
+ 1.14 2 1 cbr 1000 ------- 0 2.0 0.0 80 80
- 1.14 2 1 cbr 1000 ------- 0 2.0 0.0 80 80
r 1.142 2 1 cbr 1000 ------- 0 2.0 0.0 78 78
+ 1.142 1 0 cbr 1000 ------- 0 2.0 0.0 78 78
- 1.142 1 0 cbr 1000 ------- 0 2.0 0.0 78 78
r 1.144 1 0 cbr 1000 ------- 0 2.0 0.0 76 76
+ 1.148 2 1 cbr 1000 ------- 0 2.0 0.0 81 81
- 1.148 2 1 cbr 1000 ------- 0 2.0 0.0 81 81
r 1.15 2 1 cbr 1000 ------- 0 2.0 0.0 79 79
+ 1.15 1 0 cbr 1000 ------- 0 2.0 0.0 79 79
- 1.15 1 0 cbr 1000 ------- 0 2.0 0.0 79 79
r 1.152 1 0 cbr 1000 ------- 0 2.0 0.0 77 77
+ 1.156 2 1 cbr 1000 ------- 0 2.0 0.0 82 82
- 1.156 2 1 cbr 1000 ------- 0 2.0 0.0 82 82
r 1.158 2 1 cbr 1000 ------- 0 2.0 0.0 80 80
+ 1.158 1 0 cbr 1000 ------- 0 2.0 0.0 80 80
- 1.158 1 0 cbr 1000 ------- 0 2.0 0.0 80 80
r 1.16 1 0 cbr 1000 ------- 0 2.0 0.0 78 78
+ 1.164 2 1 cbr 1000 ------- 0 2.0 0.0 83 83
- 1.164 2 1 cbr 1000 ------- 0 2.0 0.0 83 83
r 1.166 2 1 cbr 1000 ------- 0 2.0 0.0 81 81
+ 1.166 1 0 cbr 1000 ------- 0 2.0 0.0 81 81
- 1.166 1 0 cbr 1000 ------- 0 2.0 0.0 81 81
r 1.168 1 0 cbr 1000 ------- 0 2.0 0.0 79 79
+ 1.172 2 1 cbr 1000 ------- 0 2.0 0.0 84 84
- 1.172 2 1 cbr 1000 ------- 0 2.0 0.0 84 84
r 1.174 2 1 cbr 1000 ------- 0 2.0 0.0 82 82
+ 1.174 1 0 cbr 1000 ------- 0 2.0 0.0 82 82
- 1.174 1 0 cbr 1000 ------- 0 2.0 0.0 82 82
r 1.176 1 0 cbr 1000 ------- 0 2.0 0.0 80 80
+ 1.18 2 1 cbr 1000 ------- 0 2.0 0.0 85 85
- 1.18 2 1 cbr 1000 ------- 0 2.0 0.0 85 85
r 1.182 2 1 cbr 1000 ------- 0 2.0 0.0 83 83
+ 1.182 1 0 cbr 1000 ------- 0 2.0 0.0 83 83
- 1.182 1 0 cbr 1000 ------- 0 2.0 0.0 83 83
r 1.184 1 0 cbr 1000 ------- 0 2.0 0.0 81 81
+ 1.188 2 1 cbr 1000 ------- 0 2.0 0.0 86 86
- 1.188 2 1 cbr 1000 ------- 0 2.0 0.0 86 86
r 1.19 2 1 cbr 1000 ------- 0 2.0 0.0 84 84
+ 1.19 1 0 cbr 1000 ------- 0 2.0 0.0 84 84
- 1.19 1 0 cbr 1000 ------- 0 2.0 0.0 84 84
r 1.192 1 0 cbr 1000 ------- 0 2.0 0.0 82 82
+ 1.196 2 1 cbr 1000 ------- 0 2.0 0.0 87 87
- 1.196 2 1 cbr 1000 ------- 0 2.0 0.0 87 87
r 1.198 2 1 cbr 1000 ------- 0 2.0 0.0 85 85
+ 1.198 1 0 cbr 1000 ------- 0 2.0 0.0 85 85
- 1.198 1 0 cbr 1000 ------- 0 2.0 0.0 85 85
r 1.2 1 0 cbr 1000 ------- 0 2.0 0.0 83 83
+ 1.204 2 1 cbr 1000 ------- 0 2.0 0.0 88 88
- 1.204 2 1 cbr 1000 ------- 0 2.0 0.0 88 88
r 1.206 2 1 cbr 1000 ------- 0 2.0 0.0 86 86
+ 1.206 1 0 cbr 1000 ------- 0 2.0 0.0 86 86
- 1.206 1 0 cbr 1000 ------- 0 2.0 0.0 86 86
r 1.208 1 0 cbr 1000 ------- 0 2.0 0.0 84 84
+ 1.212 2 1 cbr 1000 ------- 0 2.0 0.0 89 89
- 1.212 2 1 cbr 1000 ------- 0 2.0 0.0 89 89
r 1.214 2 1 cbr 1000 ------- 0 2.0 0.0 87 87
+ 1.214 1 0 cbr 1000 ------- 0 2.0 0.0 87 87
- 1.214 1 0 cbr 1000 ------- 0 2.0 0.0 87 87
r 1.216 1 0 cbr 1000 ------- 0 2.0 0.0 85 85
+ 1.22 2 1 cbr 1000 ------- 0 2.0 0.0 90 90
- 1.22 2 1 cbr 1000 ------- 0 2.0 0.0 90 90
r 1.222 2 1 cbr 1000 ------- 0 2.0 0.0 88 88
+ 1.222 1 0 cbr 1000 ------- 0 2.0 0.0 88 88
- 1.222 1 0 cbr 1000 ------- 0 2.0 0.0 88 88
r 1.224 1 0 cbr 1000 ------- 0 2.0 0.0 86 86
+ 1.228 2 1 cbr 1000 ------- 0 2.0 0.0 91 91
- 1.228 2 1 cbr 1000 ------- 0 2.0 0.0 91 91
r 1.23 2 1 cbr 1000 ------- 0 2.0 0.0 89 89
+ 1.23 1 0 cbr 1000 ------- 0 2.0 0.0 89 89
- 1.23 1 0 cbr 1000 ------- 0 2.0 0.0 89 89
r 1.232 1 0 cbr 1000 ------- 0 2.0 0.0 87 87
+ 1.236 2 1 cbr 1000 ------- 0 2.0 0.0 92 92
- 1.236 2 1 cbr 1000 ------- 0 2.0 0.0 92 92
r 1.238 2 1 cbr 1000 ------- 0 2.0 0.0 90 90
+ 1.238 1 0 cbr 1000 ------- 0 2.0 0.0 90 90
- 1.238 1 0 cbr 1000 ------- 0 2.0 0.0 90 90
r 1.24 1 0 cbr 1000 ------- 0 2.0 0.0 88 88
+ 1.244 2 1 cbr 1000 ------- 0 2.0 0.0 93 93
- 1.244 2 1 cbr 1000 ------- 0 2.0 0.0 93 93
r 1.246 2 1 cbr 1000 ------- 0 2.0 0.0 91 91
+ 1.246 1 0 cbr 1000 ------- 0 2.0 0.0 91 91
- 1.246 1 0 cbr 1000 ------- 0 2.0 0.0 91 91
r 1.248 1 0 cbr 1000 ------- 0 2.0 0.0 89 89
+ 1.252 2 1 cbr 1000 ------- 0 2.0 0.0 94 94
- 1.252 2 1 cbr 1000 ------- 0 2.0 0.0 94 94
r 1.254 2 1 cbr 1000 ------- 0 2.0 0.0 92 92
+ 1.254 1 0 cbr 1000 ------- 0 2.0 0.0 92 92
- 1.254 1 0 cbr 1000 ------- 0 2.0 0.0 92 92
r 1.256 1 0 cbr 1000 ------- 0 2.0 0.0 90 90
+ 1.26 2 1 cbr 1000 ------- 0 2.0 0.0 95 95
- 1.26 2 1 cbr 1000 ------- 0 2.0 0.0 95 95
r 1.262 2 1 cbr 1000 ------- 0 2.0 0.0 93 93
+ 1.262 1 0 cbr 1000 ------- 0 2.0 0.0 93 93
- 1.262 1 0 cbr 1000 ------- 0 2.0 0.0 93 93
r 1.264 1 0 cbr 1000 ------- 0 2.0 0.0 91 91
+ 1.268 2 1 cbr 1000 ------- 0 2.0 0.0 96 96
- 1.268 2 1 cbr 1000 ------- 0 2.0 0.0 96 96
r 1.27 2 1 cbr 1000 ------- 0 2.0 0.0 94 94
+ 1.27 1 0 cbr 1000 ------- 0 2.0 0.0 94 94
- 1.27 1 0 cbr 1000 ------- 0 2.0 0.0 94 94
r 1.272 1 0 cbr 1000 ------- 0 2.0 0.0 92 92
+ 1.276 2 1 cbr 1000 ------- 0 2.0 0.0 97 97
- 1.276 2 1 cbr 1000 ------- 0 2.0 0.0 97 97
r 1.278 2 1 cbr 1000 ------- 0 2.0 0.0 95 95
+ 1.278 1 0 cbr 1000 ------- 0 2.0 0.0 95 95
- 1.278 1 0 cbr 1000 ------- 0 2.0 0.0 95 95
r 1.28 1 0 cbr 1000 ------- 0 2.0 0.0 93 93
+ 1.284 2 1 cbr 1000 ------- 0 2.0 0.0 98 98
- 1.284 2 1 cbr 1000 ------- 0 2.0 0.0 98 98
r 1.286 2 1 cbr 1000 ------- 0 2.0 0.0 96 96
+ 1.286 1 0 cbr 1000 ------- 0 2.0 0.0 96 96
- 1.286 1 0 cbr 1000 ------- 0 2.0 0.0 96 96
r 1.288 1 0 cbr 1000 ------- 0 2.0 0.0 94 94
+ 1.292 2 1 cbr 1000 ------- 0 2.0 0.0 99 99
- 1.292 2 1 cbr 1000 ------- 0 2.0 0.0 99 99
r 1.294 2 1 cbr 1000 ------- 0 2.0 0.0 97 97
+ 1.294 1 0 cbr 1000 ------- 0 2.0 0.0 97 97
- 1.294 1 0 cbr 1000 ------- 0 2.0 0.0 97 97
r 1.296 1 0 cbr 1000 ------- 0 2.0 0.0 95 95
+ 1.3 2 1 cbr 1000 ------- 0 2.0 0.0 100 100
- 1.3 2 1 cbr 1000 ------- 0 2.0 0.0 100 100
r 1.302 2 1 cbr 1000 ------- 0 2.0 0.0 98 98
+ 1.302 1 0 cbr 1000 ------- 0 2.0 0.0 98 98
- 1.302 1 0 cbr 1000 ------- 0 2.0 0.0 98 98
r 1.304 1 0 cbr 1000 ------- 0 2.0 0.0 96 96
+ 1.308 2 1 cbr 1000 ------- 0 2.0 0.0 101 101
- 1.308 2 1 cbr 1000 ------- 0 2.0 0.0 101 101
r 1.31 2 1 cbr 1000 ------- 0 2.0 0.0 99 99
+ 1.31 1 0 cbr 1000 ------- 0 2.0 0.0 99 99
- 1.31 1 0 cbr 1000 ------- 0 2.0 0.0 99 99
r 1.312 1 0 cbr 1000 ------- 0 2.0 0.0 97 97
+ 1.316 2 1 cbr 1000 ------- 0 2.0 0.0 102 102
- 1.316 2 1 cbr 1000 ------- 0 2.0 0.0 102 102
r 1.318 2 1 cbr 1000 ------- 0 2.0 0.0 100 100
+ 1.318 1 0 cbr 1000 ------- 0 2.0 0.0 100 100
- 1.318 1 0 cbr 1000 ------- 0 2.0 0.0 100 100
r 1.32 1 0 cbr 1000 ------- 0 2.0 0.0 98 98
+ 1.324 2 1 cbr 1000 ------- 0 2.0 0.0 103 103
- 1.324 2 1 cbr 1000 ------- 0 2.0 0.0 103 103
r 1.326 2 1 cbr 1000 ------- 0 2.0 0.0 101 101
+ 1.326 1 0 cbr 1000 ------- 0 2.0 0.0 101 101
- 1.326 1 0 cbr 1000 ------- 0 2.0 0.0 101 101
r 1.328 1 0 cbr 1000 ------- 0 2.0 0.0 99 99
+ 1.332 2 1 cbr 1000 ------- 0 2.0 0.0 104 104
- 1.332 2 1 cbr 1000 ------- 0 2.0 0.0 104 104
r 1.334 2 1 cbr 1000 ------- 0 2.0 0.0 102 102
+ 1.334 1 0 cbr 1000 ------- 0 2.0 0.0 102 102
- 1.334 1 0 cbr 1000 ------- 0 2.0 0.0 102 102
r 1.336 1 0 cbr 1000 ------- 0 2.0 0.0 100 100
+ 1.34 2 1 cbr 1000 ------- 0 2.0 0.0 105 105
- 1.34 2 1 cbr 1000 ------- 0 2.0 0.0 105 105
r 1.342 2 1 cbr 1000 ------- 0 2.0 0.0 103 103
+ 1.342 1 0 cbr 1000 ------- 0 2.0 0.0 103 103
- 1.342 1 0 cbr 1000 ------- 0 2.0 0.0 103 103
r 1.344 1 0 cbr 1000 ------- 0 2.0 0.0 101 101
+ 1.348 2 1 cbr 1000 ------- 0 2.0 0.0 106 106
- 1.348 2 1 cbr 1000 ------- 0 2.0 0.0 106 106
r 1.35 2 1 cbr 1000 ------- 0 2.0 0.0 104 104
+ 1.35 1 0 cbr 1000 ------- 0 2.0 0.0 104 104
- 1.35 1 0 cbr 1000 ------- 0 2.0 0.0 104 104
r 1.352 1 0 cbr 1000 ------- 0 2.0 0.0 102 102
+ 1.356 2 1 cbr 1000 ------- 0 2.0 0.0 107 107
- 1.356 2 1 cbr 1000 ------- 0 2.0 0.0 107 107
r 1.358 2 1 cbr 1000 ------- 0 2.0 0.0 105 105
+ 1.358 1 0 cbr 1000 ------- 0 2.0 0.0 105 105
- 1.358 1 0 cbr 1000 ------- 0 2.0 0.0 105 105
r 1.36 1 0 cbr 1000 ------- 0 2.0 0.0 103 103
+ 1.364 2 1 cbr 1000 ------- 0 2.0 0.0 108 108
- 1.364 2 1 cbr 1000 ------- 0 2.0 0.0 108 108
r 1.366 2 1 cbr 1000 ------- 0 2.0 0.0 106 106
+ 1.366 1 0 cbr 1000 ------- 0 2.0 0.0 106 106
- 1.366 1 0 cbr 1000 ------- 0 2.0 0.0 106 106
r 1.368 1 0 cbr 1000 ------- 0 2.0 0.0 104 104
+ 1.372 2 1 cbr 1000 ------- 0 2.0 0.0 109 109
- 1.372 2 1 cbr 1000 ------- 0 2.0 0.0 109 109
r 1.374 2 1 cbr 1000 ------- 0 2.0 0.0 107 107
+ 1.374 1 0 cbr 1000 ------- 0 2.0 0.0 107 107
- 1.374 1 0 cbr 1000 ------- 0 2.0 0.0 107 107
r 1.376 1 0 cbr 1000 ------- 0 2.0 0.0 105 105
+ 1.38 2 1 cbr 1000 ------- 0 2.0 0.0 110 110
- 1.38 2 1 cbr 1000 ------- 0 2.0 0.0 110 110
r 1.382 2 1 cbr 1000 ------- 0 2.0 0.0 108 108
+ 1.382 1 0 cbr 1000 ------- 0 2.0 0.0 108 108
- 1.382 1 0 cbr 1000 ------- 0 2.0 0.0 108 108
r 1.384 1 0 cbr 1000 ------- 0 2.0 0.0 106 106
+ 1.388 2 1 cbr 1000 ------- 0 2.0 0.0 111 111
- 1.388 2 1 cbr 1000 ------- 0 2.0 0.0 111 111
r 1.39 2 1 cbr 1000 ------- 0 2.0 0.0 109 109
+ 1.39 1 0 cbr 1000 ------- 0 2.0 0.0 109 109
- 1.39 1 0 cbr 1000 ------- 0 2.0 0.0 109 109
r 1.392 1 0 cbr 1000 ------- 0 2.0 0.0 107 107
+ 1.396 2 1 cbr 1000 ------- 0 2.0 0.0 112 112
- 1.396 2 1 cbr 1000 ------- 0 2.0 0.0 112 112
r 1.398 2 1 cbr 1000 ------- 0 2.0 0.0 110 110
+ 1.398 1 0 cbr 1000 ------- 0 2.0 0.0 110 110
- 1.398 1 0 cbr 1000 ------- 0 2.0 0.0 110 110
r 1.4 1 0 cbr 1000 ------- 0 2.0 0.0 108 108
+ 1.404 2 1 cbr 1000 ------- 0 2.0 0.0 113 113