V -t * -v 1.0a5 -a 0
A -t * -n 1 -p 0 -o 0x7fffffff -c 30 -a 1
A -t * -h 1 -m 1073741823 -s 0
c -t * -i 1 -n blue
c -t * -i 2 -n red
n -t * -a 0 -s 0 -S UP -v circle -c black -i black
n -t * -a 1 -s 1 -S UP -v circle -c black -i black
n -t * -a 2 -s 2 -S UP -v circle -c black -i black
n -t * -a 3 -s 3 -S UP -v circle -c black -i black
l -t * -s 0 -d 1 -S UP -r 1000000 -D 0.01 -c black -o right
l -t * -s 1 -d 2 -S UP -r 1000000 -D 0.01 -c black -o down
l -t * -s 2 -d 3 -S UP -r 1000000 -D 0.01 -c black -o left
l -t * -s 3 -d 0 -S UP -r 1000000 -D 0.01 -c black -o up
+ -t 0.1 -s 0 -d 1 -p tcp -e 40 -c 1 -i 0 -a 1 -x {0.0 1.0 0 ------- null}
- -t 0.1 -s 0 -d 1 -p tcp -e 40 -c 1 -i 0 -a 1 -x {0.0 1.0 0 ------- null}
h -t 0.1 -s 0 -d 1 -p tcp -e 40 -c 1 -i 0 -a 1 -x {0.0 1.0 -1 ------- null}
r -t 0.11032 -s 0 -d 1 -p tcp -e 40 -c 1 -i 0 -a 1 -x {0.0 1.0 0 ------- null}
+ -t 0.11032 -s 1 -d 0 -p ack -e 40 -c 1 -i 1 -a 1 -x {1.0 0.0 0 ------- null}
- -t 0.11032 -s 1 -d 0 -p ack -e 40 -c 1 -i 1 -a 1 -x {1.0 0.0 0 ------- null}
h -t 0.11032 -s 1 -d 0 -p ack -e 40 -c 1 -i 1 -a 1 -x {1.0 0.0 -1 ------- null}
r -t 0.12064 -s 1 -d 0 -p ack -e 40 -c 1 -i 1 -a 1 -x {1.0 0.0 0 ------- null}
+ -t 0.12064 -s 0 -d 1 -p tcp -e 1040 -c 1 -i 2 -a 1 -x {0.0 1.0 1 ------- null}
- -t 0.12064 -s 0 -d 1 -p tcp -e 1040 -c 1 -i 2 -a 1 -x {0.0 1.0 1 ------- null}
h -t 0.12064 -s 0 -d 1 -p tcp -e 1040 -c 1 -i 2 -a 1 -x {0.0 1.0 -1 ------- null}
+ -t 0.12064 -s 0 -d 1 -p tcp -e 1040 -c 1 -i 3 -a 1 -x {0.0 1.0 2 ------- null}
- -t 0.12896 -s 0 -d 1 -p tcp -e 1040 -c 1 -i 3 -a 1 -x {0.0 1.0 2 ------- null}
h -t 0.12896 -s 0 -d 1 -p tcp -e 1040 -c 1 -i 3 -a 1 -x {0.0 1.0 -1 ------- null}
r -t 0.13896 -s 0 -d 1 -p tcp -e 1040 -c 1 -i 2 -a 1 -x {0.0 1.0 1 ------- null}
+ -t 0.13896 -s 1 -d 0 -p ack -e 40 -c 1 -i 4 -a 1 -x {1.0 0.0 1 ------- null}
- -t 0.13896 -s 1 -d 0 -p ack -e 40 -c 1 -i 4 -a 1 -x {1.0 0.0 1 ------- null}
h -t 0.13896 -s 1 -d 0 -p ack -e 40 -c 1 -i 4 -a 1 -x {1.0 0.0 -1 ------- null}
r -t 0.14728 -s 0 -d 1 -p tcp -e 1040 -c 1 -i 3 -a 1 -x {0.0 1.0 2 ------- null}
+ -t 0.14728 -s 1 -d 0 -p ack -e 40 -c 1 -i 5 -a 1 -x {1.0 0.0 2 ------- null}
- -t 0.14728 -s 1 -d 0 -p ack -e 40 -c 1 -i 5 -a 1 -x {1.0 0.0 2 ------- null}
h -t 0.14728 -s 1 -d 0 -p ack -e 40 -c 1 -i 5 -a 1 -x {1.0 0.0 -1 ------- null}
r -t 0.14928 -s 1 -d 0 -p ack -e 40 -c 1 -i 4 -a 1 -x {1.0 0.0 1 ------- null}
+ -t 0.14928 -s 0 -d 1 -p tcp -e 1040 -c 1 -i 6 -a 1 -x {0.0 1.0 3 ------- null}
- -t 0.14928 -s 0 -d 1 -p tcp -e 1040 -c 1 -i 6 -a 1 -x {0.0 1.0 3 ------- null}
h -t 0.14928 -s 0 -d 1 -p tcp -e 1040 -c 1 -i 6 -a 1 -x {0.0 1.0 -1 ------- null}
+ -t 0.14928 -s 0 -d 1 -p tcp -e 1040 -c 1 -i 7 -a 1 -x {0.0 1.0 4 ------- null}
r -t 0.1576 -s 1 -d 0 -p ack -e 40 -c 1 -i 5 -a 1 -x {1.0 0.0 2 ------- null}
+ -t 0.1576 -s 0 -d 1 -p tcp -e 1040 -c 1 -i 8 -a 1 -x {0.0 1.0 5 ------- null}
+ -t 0.1576 -s 0 -d 1 -p tcp -e 1040 -c 1 -i 9 -a 1 -x {0.0 1.0 6 ------- null}
- -t 0.1576 -s 0 -d 1 -p tcp -e 1040 -c 1 -i 7 -a 1 -x {0.0 1.0 4 ------- null}
h -t 0.1576 -s 0 -d 1 -p tcp -e 1040 -c 1 -i 7 -a 1 -x {0.0 1.0 -1 ------- null}
- -t 0.16592 -s 0 -d 1 -p tcp -e 1040 -c 1 -i 8 -a 1 -x {0.0 1.0 5 ------- null}
h -t 0.16592 -s 0 -d 1 -p tcp -e 1040 -c 1 -i 8 -a 1 -x {0.0 1.0 -1 ------- null}
r -t 0.1676 -s 0 -d 1 -p tcp -e 1040 -c 1 -i 6 -a 1 -x {0.0 1.0 3 ------- null}
+ -t 0.1676 -s 1 -d 0 -p ack -e 40 -c 1 -i 10 -a 1 -x {1.0 0.0 3 ------- null}
- -t 0.1676 -s 1 -d 0 -p ack -e 40 -c 1 -i 10 -a 1 -x {1.0 0.0 3 ------- null}
h -t 0.1676 -s 1 -d 0 -p ack -e 40 -c 1 -i 10 -a 1 -x {1.0 0.0 -1 ------- null}
- -t 0.17424 -s 0 -d 1 -p tcp -e 1040 -c 1 -i 9 -a 1 -x {0.0 1.0 6 ------- null}
h -t 0.17424 -s 0 -d 1 -p tcp -e 1040 -c 1 -i 9 -a 1 -x {0.0 1.0 -1 ------- null}
r -t 0.17592 -s 0 -d 1 -p tcp -e 1040 -c 1 -i 7 -a 1 -x {0.0 1.0 4 ------- null}
+ -t 0.17592 -s 1 -d 0 -p ack -e 40 -c 1 -i 11 -a 1 -x {1.0 0.0 4 ------- null}
- -t 0.17592 -s 1 -d 0 -p ack -e 40 -c 1 -i 11 -a 1 -x {1.0 0.0 4 ------- null}
h -t 0.17592 -s 1 -d 0 -p ack -e 40 -c 1 -i 11 -a 1 -x {1.0 0.0 -1 ------- null}
r -t 0.17792 -s 1 -d 0 -p ack -e 40 -c 1 -i 10 -a 1 -x {1.0 0.0 3 ------- null}
+ -t 0.17792 -s 0 -d 1 -p tcp -e 1040 -c 1 -i 12 -a 1 -x {0.0 1.0 7 ------- null}
+ -t 0.17792 -s 0 -d 1 -p tcp -e 1040 -c 1 -i 13 -a 1 -x {0.0 1.0 8 ------- null}
- -t 0.18256 -s 0 -d 1 -p tcp -e 1040 -c 1 -i 12 -a 1 -x {0.0 1.0 7 ------- null}
h -t 0.18256 -s 0 -d 1 -p tcp -e 1040 -c 1 -i 12 -a 1 -x {0.0 1.0 -1 ------- null}
r -t 0.18424 -s 0 -d 1 -p tcp -e 1040 -c 1 -i 8 -a 1 -x {0.0 1.0 5 ------- null}
+ -t 0.18424 -s 1 -d 0 -p ack -e 40 -c 1 -i 14 -a 1 -x {1.0 0.0 5 ------- null}
- -t 0.18424 -s 1 -d 0 -p ack -e 40 -c 1 -i 14 -a 1 -x {1.0 0.0 5 ------- null}
h -t 0.18424 -s 1 -d 0 -p ack -e 40 -c 1 -i 14 -a 1 -x {1.0 0.0 -1 ------- null}
r -t 0.18624 -s 1 -d 0 -p ack -e 40 -c 1 -i 11 -a 1 -x {1.0 0.0 4 ------- null}
+ -t 0.18624 -s 0 -d 1 -p tcp -e 1040 -c 1 -i 15 -a 1 -x {0.0 1.0 9 ------- null}
+ -t 0.18624 -s 0 -d 1 -p tcp -e 1040 -c 1 -i 16 -a 1 -x {0.0 1.0 10 ------- null}
- -t 0.19088 -s 0 -d 1 -p tcp -e 1040 -c 1 -i 13 -a 1 -x {0.0 1.0 8 ------- null}
h -t 0.19088 -s 0 -d 1 -p tcp -e 1040 -c 1 -i 13 -a 1 -x {0.0 1.0 -1 ------- null}
r -t 0.19256 -s 0 -d 1 -p tcp -e 1040 -c 1 -i 9 -a 1 -x {0.0 1.0 6 ------- null}
+ -t 0.19256 -s 1 -d 0 -p ack -e 40 -c 1 -i 17 -a 1 -x {1.0 0.0 6 ------- null}
- -t 0.19256 -s 1 -d 0 -p ack -e 40 -c 1 -i 17 -a 1 -x {1.0 0.0 6 ------- null}
h -t 0.19256 -s 1 -d 0 -p ack -e 40 -c 1 -i 17 -a 1 -x {1.0 0.0 -1 ------- null}
r -t 0.19456 -s 1 -d 0 -p ack -e 40 -c 1 -i 14 -a 1 -x {1.0 0.0 5 ------- null}
+ -t 0.19456 -s 0 -d 1 -p tcp -e 1040 -c 1 -i 18 -a 1 -x {0.0 1.0 11 ------- null}
+ -t 0.19456 -s 0 -d 1 -p tcp -e 1040 -c 1 -i 19 -a 1 -x {0.0 1.0 12 ------- null}
- -t 0.1992 -s 0 -d 1 -p tcp -e 1040 -c 1 -i 15 -a 1 -x {0.0 1.0 9 ------- null}
h -t 0.1992 -s 0 -d 1 -p tcp -e 1040 -c 1 -i 15 -a 1 -x {0.0 1.0 -1 ------- null}
+ -t 0.2 -s 2 -d 3 -p tcp -e 40 -c 2 -i 20 -a 2 -x {2.0 3.0 0 ------- null}
- -t 0.2 -s 2 -d 3 -p tcp -e 40 -c 2 -i 20 -a 2 -x {2.0 3.0 0 ------- null}
h -t 0.2 -s 2 -d 3 -p tcp -e 40 -c 2 -i 20 -a 2 -x {2.0 3.0 -1 ------- null}
r -t 0.20088 -s 0 -d 1 -p tcp -e 1040 -c 1 -i 12 -a 1 -x {0.0 1.0 7 ------- null}
+ -t 0.20088 -s 1 -d 0 -p ack -e 40 -c 1 -i 21 -a 1 -x {1.0 0.0 7 ------- null}
- -t 0.20088 -s 1 -d 0 -p ack -e 40 -c 1 -i 21 -a 1 -x {1.0 0.0 7 ------- null}
h -t 0.20088 -s 1 -d 0 -p ack -e 40 -c 1 -i 21 -a 1 -x {1.0 0.0 -1 ------- null}
r -t 0.20288 -s 1 -d 0 -p ack -e 40 -c 1 -i 17 -a 1 -x {1.0 0.0 6 ------- null}
+ -t 0.20288 -s 0 -d 1 -p tcp -e 1040 -c 1 -i 22 -a 1 -x {0.0 1.0 13 ------- null}
+ -t 0.20288 -s 0 -d 1 -p tcp -e 1040 -c 1 -i 23 -a 1 -x {0.0 1.0 14 ------- null}
- -t 0.20752 -s 0 -d 1 -p tcp -e 1040 -c 1 -i 16 -a 1 -x {0.0 1.0 10 ------- null}
h -t 0.20752 -s 0 -d 1 -p tcp -e 1040 -c 1 -i 16 -a 1 -x {0.0 1.0 -1 ------- null}
r -t 0.2092 -s 0 -d 1 -p tcp -e 1040 -c 1 -i 13 -a 1 -x {0.0 1.0 8 ------- null}
+ -t 0.2092 -s 1 -d 0 -p ack -e 40 -c 1 -i 24 -a 1 -x {1.0 0.0 8 ------- null}
- -t 0.2092 -s 1 -d 0 -p ack -e 40 -c 1 -i 24 -a 1 -x {1.0 0.0 8 ------- null}
h -t 0.2092 -s 1 -d 0 -p ack -e 40 -c 1 -i 24 -a 1 -x {1.0 0.0 -1 ------- null}
r -t 0.21032 -s 2 -d 3 -p tcp -e 40 -c 2 -i 20 -a 2 -x {2.0 3.0 0 ------- null}
+ -t 0.21032 -s 3 -d 2 -p ack -e 40 -c 2 -i 25 -a 2 -x {3.0 2.0 0 ------- null}
- -t 0.21032 -s 3 -d 2 -p ack -e 40 -c 2 -i 25 -a 2 -x {3.0 2.0 0 ------- null}
h -t 0.21032 -s 3 -d 2 -p ack -e 40 -c 2 -i 25 -a 2 -x {3.0 2.0 -1 ------- null}
r -t 0.2112 -s 1 -d 0 -p ack -e 40 -c 1 -i 21 -a 1 -x {1.0 0.0 7 ------- null}
+ -t 0.2112 -s 0 -d 1 -p tcp -e 1040 -c 1 -i 26 -a 1 -x {0.0 1.0 15 ------- null}
+ -t 0.2112 -s 0 -d 1 -p tcp -e 1040 -c 1 -i 27 -a 1 -x {0.0 1.0 16 ------- null}
- -t 0.21584 -s 0 -d 1 -p tcp -e 1040 -c 1 -i 18 -a 1 -x {0.0 1.0 11 ------- null}
h -t 0.21584 -s 0 -d 1 -p tcp -e 1040 -c 1 -i 18 -a 1 -x {0.0 1.0 -1 ------- null}
r -t 0.21752 -s 0 -d 1 -p tcp -e 1040 -c 1 -i 15 -a 1 -x {0.0 1.0 9 ------- null}
+ -t 0.21752 -s 1 -d 0 -p ack -e 40 -c 1 -i 28 -a 1 -x {1.0 0.0 9 ------- null}
- -t 0.21752 -s 1 -d 0 -p ack -e 40 -c 1 -i 28 -a 1 -x {1.0 0.0 9 ------- null}
h -t 0.21752 -s 1 -d 0 -p ack -e 40 -c 1 -i 28 -a 1 -x {1.0 0.0 -1 ------- null}
r -t 0.21952 -s 1 -d 0 -p ack -e 40 -c 1 -i 24 -a 1 -x {1.0 0.0 8 ------- null}
+ -t 0.21952 -s 0 -d 1 -p tcp -e 1040 -c 1 -i 29 -a 1 -x {0.0 1.0 17 ------- null}
+ -t 0.21952 -s 0 -d 1 -p tcp -e 1040 -c 1 -i 30 -a 1 -x {0.0 1.0 18 ------- null}
r -t 0.22064 -s 3 -d 2 -p ack -e 40 -c 2 -i 25 -a 2 -x {3.0 2.0 0 ------- null}
+ -t 0.22064 -s 2 -d 3 -p tcp -e 1040 -c 2 -i 31 -a 2 -x {2.0 3.0 1 ------- null}
- -t 0.22064 -s 2 -d 3 -p tcp -e 1040 -c 2 -i 31 -a 2 -x {2.0 3.0 1 ------- null}
h -t 0.22064 -s 2 -d 3 -p tcp -e 1040 -c 2 -i 31 -a 2 -x {2.0 3.0 -1 ------- null}
+ -t 0.22064 -s 2 -d 3 -p tcp -e 1040 -c 2 -i 32 -a 2 -x {2.0 3.0 2 ------- null}
- -t 0.22416 -s 0 -d 1 -p tcp -e 1040 -c 1 -i 19 -a 1 -x {0.0 1.0 12 ------- null}
h -t 0.22416 -s 0 -d 1 -p tcp -e 1040 -c 1 -i 19 -a 1 -x {0.0 1.0 -1 ------- null}
r -t 0.22584 -s 0 -d 1 -p tcp -e 1040 -c 1 -i 16 -a 1 -x {0.0 1.0 10 ------- null}
+ -t 0.22584 -s 1 -d 0 -p ack -e 40 -c 1 -i 33 -a 1 -x {1.0 0.0 10 ------- null}
- -t 0.22584 -s 1 -d 0 -p ack -e 40 -c 1 -i 33 -a 1 -x {1.0 0.0 10 ------- null}
h -t 0.22584 -s 1 -d 0 -p ack -e 40 -c 1 -i 33 -a 1 -x {1.0 0.0 -1 ------- null}
r -t 0.22784 -s 1 -d 0 -p ack -e 40 -c 1 -i 28 -a 1 -x {1.0 0.0 9 ------- null}
+ -t 0.22784 -s 0 -d 1 -p tcp -e 1040 -c 1 -i 34 -a 1 -x {0.0 1.0 19 ------- null}
+ -t 0.22784 -s 0 -d 1 -p tcp -e 1040 -c 1 -i 35 -a 1 -x {0.0 1.0 20 ------- null}
- -t 0.22896 -s 2 -d 3 -p tcp -e 1040 -c 2 -i 32 -a 2 -x {2.0 3.0 2 ------- null}
h -t 0.22896 -s 2 -d 3 -p tcp -e 1040 -c 2 -i 32 -a 2 -x {2.0 3.0 -1 ------- null}
- -t 0.23248 -s 0 -d 1 -p tcp -e 1040 -c 1 -i 22 -a 1 -x {0.0 1.0 13 ------- null}
h -t 0.23248 -s 0 -d 1 -p tcp -e 1040 -c 1 -i 22 -a 1 -x {0.0 1.0 -1 ------- null}
r -t 0.23416 -s 0 -d 1 -p tcp -e 1040 -c 1 -i 18 -a 1 -x {0.0 1.0 11 ------- null}
+ -t 0.23416 -s 1 -d 0 -p ack -e 40 -c 1 -i 36 -a 1 -x {1.0 0.0 11 ------- null}
- -t 0.23416 -s 1 -d 0 -p ack -e 40 -c 1 -i 36 -a 1 -x {1.0 0.0 11 ------- null}
h -t 0.23416 -s 1 -d 0 -p ack -e 40 -c 1 -i 36 -a 1 -x {1.0 0.0 -1 ------- null}
r -t 0.23616 -s 1 -d 0 -p ack -e 40 -c 1 -i 33 -a 1 -x {1.0 0.0 10 ------- null}
+ -t 0.23616 -s 0 -d 1 -p tcp -e 1040 -c 1 -i 37 -a 1 -x {0.0 1.0 21 ------- null}
+ -t 0.23616 -s 0 -d 1 -p tcp -e 1040 -c 1 -i 38 -a 1 -x {0.0 1.0 22 ------- null}
r -t 0.23896 -s 2 -d 3 -p tcp -e 1040 -c 2 -i 31 -a 2 -x {2.0 3.0 1 ------- null}
+ -t 0.23896 -s 3 -d 2 -p ack -e 40 -c 2 -i 39 -a 2 -x {3.0 2.0 1 ------- null}
- -t 0.23896 -s 3 -d 2 -p ack -e 40 -c 2 -i 39 -a 2 -x {3.0 2.0 1 ------- null}
h -t 0.23896 -s 3 -d 2 -p ack -e 40 -c 2 -i 39 -a 2 -x {3.0 2.0 -1 ------- null}
- -t 0.2408 -s 0 -d 1 -p tcp -e 1040 -c 1 -i 23 -a 1 -x {0.0 1.0 14 ------- null}
h -t 0.2408 -s 0 -d 1 -p tcp -e 1040 -c 1 -i 23 -a 1 -x {0.0 1.0 -1 ------- null}
r -t 0.24248 -s 0 -d 1 -p tcp -e 1040 -c 1 -i 19 -a 1 -x {0.0 1.0 12 ------- null}
+ -t 0.24248 -s 1 -d 0 -p ack -e 40 -c 1 -i 40 -a 1 -x {1.0 0.0 12 ------- null}
- -t 0.24248 -s 1 -d 0 -p ack -e 40 -c 1 -i 40 -a 1 -x {1.0 0.0 12 ------- null}
h -t 0.24248 -s 1 -d 0 -p ack -e 40 -c 1 -i 40 -a 1 -x {1.0 0.0 -1 ------- null}
r -t 0.24448 -s 1 -d 0 -p ack -e 40 -c 1 -i 36 -a 1 -x {1.0 0.0 11 ------- null}
+ -t 0.24448 -s 0 -d 1 -p tcp -e 1040 -c 1 -i 41 -a 1 -x {0.0 1.0 23 ------- null}
+ -t 0.24448 -s 0 -d 1 -p tcp -e 1040 -c 1 -i 42 -a 1 -x {0.0 1.0 24 ------- null}
r -t 0.24728 -s 2 -d 3 -p tcp -e 1040 -c 2 -i 32 -a 2 -x {2.0 3.0 2 ------- null}
+ -t 0.24728 -s 3 -d 2 -p ack -e 40 -c 2 -i 43 -a 2 -x {3.0 2.0 2 ------- null}
- -t 0.24728 -s 3 -d 2 -p ack -e 40 -c 2 -i 43 -a 2 -x {3.0 2.0 2 ------- null}
h -t 0.24728 -s 3 -d 2 -p ack -e 40 -c 2 -i 43 -a 2 -x {3.0 2.0 -1 ------- null}
- -t 0.24912 -s 0 -d 1 -p tcp -e 1040 -c 1 -i 26 -a 1 -x {0.0 1.0 15 ------- null}
h -t 0.24912 -s 0 -d 1 -p tcp -e 1040 -c 1 -i 26 -a 1 -x {0.0 1.0 -1 ------- null}
r -t 0.24928 -s 3 -d 2 -p ack -e 40 -c 2 -i 39 -a 2 -x {3.0 2.0 1 ------- null}
+ -t 0.24928 -s 2 -d 3 -p tcp -e 1040 -c 2 -i 44 -a 2 -x {2.0 3.0 3 ------- null}
- -t 0.24928 -s 2 -d 3 -p tcp -e 1040 -c 2 -i 44 -a 2 -x {2.0 3.0 3 ------- null}
h -t 0.24928 -s 2 -d 3 -p tcp -e 1040 -c 2 -i 44 -a 2 -x {2.0 3.0 -1 ------- null}
+ -t 0.24928 -s 2 -d 3 -p tcp -e 1040 -c 2 -i 45 -a 2 -x {2.0 3.0 4 ------- null}
r -t 0.2508 -s 0 -d 1 -p tcp -e 1040 -c 1 -i 22 -a 1 -x {0.0 1.0 13 ------- null}
+ -t 0.2508 -s 1 -d 0 -p ack -e 40 -c 1 -i 46 -a 1 -x {1.0 0.0 13 ------- null}
- -t 0.2508 -s 1 -d 0 -p ack -e 40 -c 1 -i 46 -a 1 -x {1.0 0.0 13 ------- null}
h -t 0.2508 -s 1 -d 0 -p ack -e 40 -c 1 -i 46 -a 1 -x {1.0 0.0 -1 ------- null}
r -t 0.2528 -s 1 -d 0 -p ack -e 40 -c 1 -i 40 -a 1 -x {1.0 0.0 12 ------- null}
+ -t 0.2528 -s 0 -d 1 -p tcp -e 1040 -c 1 -i 47 -a 1 -x {0.0 1.0 25 ------- null}
+ -t 0.2528 -s 0 -d 1 -p tcp -e 1040 -c 1 -i 48 -a 1 -x {0.0 1.0 26 ------- null}
- -t 0.25744 -s 0 -d 1 -p tcp -e 1040 -c 1 -i 27 -a 1 -x {0.0 1.0 16 ------- null}
h -t 0.25744 -s 0 -d 1 -p tcp -e 1040 -c 1 -i 27 -a 1 -x {0.0 1.0 -1 ------- null}
r -t 0.2576 -s 3 -d 2 -p ack -e 40 -c 2 -i 43 -a 2 -x {3.0 2.0 2 ------- null}
+ -t 0.2576 -s 2 -d 3 -p tcp -e 1040 -c 2 -i 49 -a 2 -x {2.0 3.0 5 ------- null}
+ -t 0.2576 -s 2 -d 3 -p tcp -e 1040 -c 2 -i 50 -a 2 -x {2.0 3.0 6 ------- null}
- -t 0.2576 -s 2 -d 3 -p tcp -e 1040 -c 2 -i 45 -a 2 -x {2.0 3.0 4 ------- null}
h -t 0.2576 -s 2 -d 3 -p tcp -e 1040 -c 2 -i 45 -a 2 -x {2.0 3.0 -1 ------- null}
r -t 0.25912 -s 0 -d 1 -p tcp -e 1040 -c 1 -i 23 -a 1 -x {0.0 1.0 14 ------- null}
+ -t 0.25912 -s 1 -d 0 -p ack -e 40 -c 1 -i 51 -a 1 -x {1.0 0.0 14 ------- null}
- -t 0.25912 -s 1 -d 0 -p ack -e 40 -c 1 -i 51 -a 1 -x {1.0 0.0 14 ------- null}
h -t 0.25912 -s 1 -d 0 -p ack -e 40 -c 1 -i 51 -a 1 -x {1.0 0.0 -1 ------- null}
r -t 0.26112 -s 1 -d 0 -p ack -e 40 -c 1 -i 46 -a 1 -x {1.0 0.0 13 ------- null}
+ -t 0.26112 -s 0 -d 1 -p tcp -e 1040 -c 1 -i 52 -a 1 -x {0.0 1.0 27 ------- null}
+ -t 0.26112 -s 0 -d 1 -p tcp -e 1040 -c 1 -i 53 -a 1 -x {0.0 1.0 28 ------- null}
- -t 0.26576 -s 0 -d 1 -p tcp -e 1040 -c 1 -i 29 -a 1 -x {0.0 1.0 17 ------- null}
h -t 0.26576 -s 0 -d 1 -p tcp -e 1040 -c 1 -i 29 -a 1 -x {0.0 1.0 -1 ------- null}
- -t 0.26592 -s 2 -d 3 -p tcp -e 1040 -c 2 -i 49 -a 2 -x {2.0 3.0 5 ------- null}
h -t 0.26592 -s 2 -d 3 -p tcp -e 1040 -c 2 -i 49 -a 2 -x {2.0 3.0 -1 ------- null}
r -t 0.26744 -s 0 -d 1 -p tcp -e 1040 -c 1 -i 26 -a 1 -x {0.0 1.0 15 ------- null}
+ -t 0.26744 -s 1 -d 0 -p ack -e 40 -c 1 -i 54 -a 1 -x {1.0 0.0 15 ------- null}
- -t 0.26744 -s 1 -d 0 -p ack -e 40 -c 1 -i 54 -a 1 -x {1.0 0.0 15 ------- null}
h -t 0.26744 -s 1 -d 0 -p ack -e 40 -c 1 -i 54 -a 1 -x {1.0 0.0 -1 ------- null}
r -t 0.2676 -s 2 -d 3 -p tcp -e 1040 -c 2 -i 44 -a 2 -x {2.0 3.0 3 ------- null}
+ -t 0.2676 -s 3 -d 2 -p ack -e 40 -c 2 -i 55 -a 2 -x {3.0 2.0 3 ------- null}
- -t 0.2676 -s 3 -d 2 -p ack -e 40 -c 2 -i 55 -a 2 -x {3.0 2.0 3 ------- null}
h -t 0.2676 -s 3 -d 2 -p ack -e 40 -c 2 -i 55 -a 2 -x {3.0 2.0 -1 ------- null}
r -t 0.26944 -s 1 -d 0 -p ack -e 40 -c 1 -i 51 -a 1 -x {1.0 0.0 14 ------- null}
+ -t 0.26944 -s 0 -d 1 -p tcp -e 1040 -c 1 -i 56 -a 1 -x {0.0 1.0 29 ------- null}
+ -t 0.26944 -s 0 -d 1 -p tcp -e 1040 -c 1 -i 57 -a 1 -x {0.0 1.0 30 ------- null}
- -t 0.27408 -s 0 -d 1 -p tcp -e 1040 -c 1 -i 30 -a 1 -x {0.0 1.0 18 ------- null}
h -t 0.27408 -s 0 -d 1 -p tcp -e 1040 -c 1 -i 30 -a 1 -x {0.0 1.0 -1 ------- null}
- -t 0.27424 -s 2 -d 3 -p tcp -e 1040 -c 2 -i 50 -a 2 -x {2.0 3.0 6 ------- null}
h -t 0.27424 -s 2 -d 3 -p tcp -e 1040 -c 2 -i 50 -a 2 -x {2.0 3.0 -1 ------- null}
r -t 0.27576 -s 0 -d 1 -p tcp -e 1040 -c 1 -i 27 -a 1 -x {0.0 1.0 16 ------- null}
+ -t 0.27576 -s 1 -d 0 -p ack -e 40 -c 1 -i 58 -a 1 -x {1.0 0.0 16 ------- null}
- -t 0.27576 -s 1 -d 0 -p ack -e 40 -c 1 -i 58 -a 1 -x {1.0 0.0 16 ------- null}
h -t 0.27576 -s 1 -d 0 -p ack -e 40 -c 1 -i 58 -a 1 -x {1.0 0.0 -1 ------- null}
r -t 0.27592 -s 2 -d 3 -p tcp -e 1040 -c 2 -i 45 -a 2 -x {2.0 3.0 4 ------- null}
+ -t 0.27592 -s 3 -d 2 -p ack -e 40 -c 2 -i 59 -a 2 -x {3.0 2.0 4 ------- null}
- -t 0.27592 -s 3 -d 2 -p ack -e 40 -c 2 -i 59 -a 2 -x {3.0 2.0 4 ------- null}
h -t 0.27592 -s 3 -d 2 -p ack -e 40 -c 2 -i 59 -a 2 -x {3.0 2.0 -1 ------- null}
r -t 0.27776 -s 1 -d 0 -p ack -e 40 -c 1 -i 54 -a 1 -x {1.0 0.0 15 ------- null}
+ -t 0.27776 -s 0 -d 1 -p tcp -e 1040 -c 1 -i 60 -a 1 -x {0.0 1.0 31 ------- null}
+ -t 0.27776 -s 0 -d 1 -p tcp -e 1040 -c 1 -i 61 -a 1 -x {0.0 1.0 32 ------- null}
r -t 0.27792 -s 3 -d 2 -p ack -e 40 -c 2 -i 55 -a 2 -x {3.0 2.0 3 ------- null}
+ -t 0.27792 -s 2 -d 3 -p tcp -e 1040 -c 2 -i 62 -a 2 -x {2.0 3.0 7 ------- null}
+ -t 0.27792 -s 2 -d 3 -p tcp -e 1040 -c 2 -i 63 -a 2 -x {2.0 3.0 8 ------- null}
- -t 0.2824 -s 0 -d 1 -p tcp -e 1040 -c 1 -i 34 -a 1 -x {0.0 1.0 19 ------- null}
h -t 0.2824 -s 0 -d 1 -p tcp -e 1040 -c 1 -i 34 -a 1 -x {0.0 1.0 -1 ------- null}
- -t 0.28256 -s 2 -d 3 -p tcp -e 1040 -c 2 -i 62 -a 2 -x {2.0 3.0 7 ------- null}
h -t 0.28256 -s 2 -d 3 -p tcp -e 1040 -c 2 -i 62 -a 2 -x {2.0 3.0 -1 ------- null}
r -t 0.28408 -s 0 -d 1 -p tcp -e 1040 -c 1 -i 29 -a 1 -x {0.0 1.0 17 ------- null}
+ -t 0.28408 -s 1 -d 0 -p ack -e 40 -c 1 -i 64 -a 1 -x {1.0 0.0 17 ------- null}
- -t 0.28408 -s 1 -d 0 -p ack -e 40 -c 1 -i 64 -a 1 -x {1.0 0.0 17 ------- null}
h -t 0.28408 -s 1 -d 0 -p ack -e 40 -c 1 -i 64 -a 1 -x {1.0 0.0 -1 ------- null}
r -t 0.28424 -s 2 -d 3 -p tcp -e 1040 -c 2 -i 49 -a 2 -x {2.0 3.0 5 ------- null}
+ -t 0.28424 -s 3 -d 2 -p ack -e 40 -c 2 -i 65 -a 2 -x {3.0 2.0 5 ------- null}
- -t 0.28424 -s 3 -d 2 -p ack -e 40 -c 2 -i 65 -a 2 -x {3.0 2.0 5 ------- null}
h -t 0.28424 -s 3 -d 2 -p ack -e 40 -c 2 -i 65 -a 2 -x {3.0 2.0 -1 ------- null}
r -t 0.28608 -s 1 -d 0 -p ack -e 40 -c 1 -i 58 -a 1 -x {1.0 0.0 16 ------- null}
+ -t 0.28608 -s 0 -d 1 -p tcp -e 1040 -c 1 -i 66 -a 1 -x {0.0 1.0 33 ------- null}
+ -t 0.28608 -s 0 -d 1 -p tcp -e 1040 -c 1 -i 67 -a 1 -x {0.0 1.0 34 ------- null}
r -t 0.28624 -s 3 -d 2 -p ack -e 40 -c 2 -i 59 -a 2 -x {3.0 2.0 4 ------- null}
+ -t 0.28624 -s 2 -d 3 -p tcp -e 1040 -c 2 -i 68 -a 2 -x {2.0 3.0 9 ------- null}
+ -t 0.28624 -s 2 -d 3 -p tcp -e 1040 -c 2 -i 69 -a 2 -x {2.0 3.0 10 ------- null}
- -t 0.29072 -s 0 -d 1 -p tcp -e 1040 -c 1 -i 35 -a 1 -x {0.0 1.0 20 ------- null}
h -t 0.29072 -s 0 -d 1 -p tcp -e 1040 -c 1 -i 35 -a 1 -x {0.0 1.0 -1 ------- null}
- -t 0.29088 -s 2 -d 3 -p tcp -e 1040 -c 2 -i 63 -a 2 -x {2.0 3.0 8 ------- null}
h -t 0.29088 -s 2 -d 3 -p tcp -e 1040 -c 2 -i 63 -a 2 -x {2.0 3.0 -1 ------- null}
r -t 0.2924 -s 0 -d 1 -p tcp -e 1040 -c 1 -i 30 -a 1 -x {0.0 1.0 18 ------- null}
+ -t 0.2924 -s 1 -d 0 -p ack -e 40 -c 1 -i 70 -a 1 -x {1.0 0.0 18 ------- null}
- -t 0.2924 -s 1 -d 0 -p ack -e 40 -c 1 -i 70 -a 1 -x {1.0 0.0 18 ------- null}
h -t 0.2924 -s 1 -d 0 -p ack -e 40 -c 1 -i 70 -a 1 -x {1.0 0.0 -1 ------- null}
r -t 0.29256 -s 2 -d 3 -p tcp -e 1040 -c 2 -i 50 -a 2 -x {2.0 3.0 6 ------- null}
+ -t 0.29256 -s 3 -d 2 -p ack -e 40 -c 2 -i 71 -a 2 -x {3.0 2.0 6 ------- null}
- -t 0.29256 -s 3 -d 2 -p ack -e 40 -c 2 -i 71 -a 2 -x {3.0 2.0 6 ------- null}
h -t 0.29256 -s 3 -d 2 -p ack -e 40 -c 2 -i 71 -a 2 -x {3.0 2.0 -1 ------- null}
r -t 0.2944 -s 1 -d 0 -p ack -e 40 -c 1 -i 64 -a 1 -x {1.0 0.0 17 ------- null}
+ -t 0.2944 -s 0 -d 1 -p tcp -e 1040 -c 1 -i 72 -a 1 -x {0.0 1.0 35 ------- null}
+ -t 0.2944 -s 0 -d 1 -p tcp -e 1040 -c 1 -i 73 -a 1 -x {0.0 1.0 36 ------- null}
r -t 0.29456 -s 3 -d 2 -p ack -e 40 -c 2 -i 65 -a 2 -x {3.0 2.0 5 ------- null}
+ -t 0.29456 -s 2 -d 3 -p tcp -e 1040 -c 2 -i 74 -a 2 -x {2.0 3.0 11 ------- null}
+ -t 0.29456 -s 2 -d 3 -p tcp -e 1040 -c 2 -i 75 -a 2 -x {2.0 3.0 12 ------- null}
- -t 0.29904 -s 0 -d 1 -p tcp -e 1040 -c 1 -i 37 -a 1 -x {0.0 1.0 21 ------- null}
h -t 0.29904 -s 0 -d 1 -p tcp -e 1040 -c 1 -i 37 -a 1 -x {0.0 1.0 -1 ------- null}
- -t 0.2992 -s 2 -d 3 -p tcp -e 1040 -c 2 -i 68 -a 2 -x {2.0 3.0 9 ------- null}
h -t 0.2992 -s 2 -d 3 -p tcp -e 1040 -c 2 -i 68 -a 2 -x {2.0 3.0 -1 ------- null}
r -t 0.30072 -s 0 -d 1 -p tcp -e 1040 -c 1 -i 34 -a 1 -x {0.0 1.0 19 ------- null}
+ -t 0.30072 -s 1 -d 0 -p ack -e 40 -c 1 -i 76 -a 1 -x {1.0 0.0 19 ------- null}
- -t 0.30072 -s 1 -d 0 -p ack -e 40 -c 1 -i 76 -a 1 -x {1.0 0.0 19 ------- null}
h -t 0.30072 -s 1 -d 0 -p ack -e 40 -c 1 -i 76 -a 1 -x {1.0 0.0 -1 ------- null}
r -t 0.30088 -s 2 -d 3 -p tcp -e 1040 -c 2 -i 62 -a 2 -x {2.0 3.0 7 ------- null}
+ -t 0.30088 -s 3 -d 2 -p ack -e 40 -c 2 -i 77 -a 2 -x {3.0 2.0 7 ------- null}
- -t 0.30088 -s 3 -d 2 -p ack -e 40 -c 2 -i 77 -a 2 -x {3.0 2.0 7 ------- null}
h -t 0.30088 -s 3 -d 2 -p ack -e 40 -c 2 -i 77 -a 2 -x {3.0 2.0 -1 ------- null}
r -t 0.30272 -s 1 -d 0 -p ack -e 40 -c 1 -i 70 -a 1 -x {1.0 0.0 18 ------- null}
+ -t 0.30272 -s 0 -d 1 -p tcp -e 1040 -c 1 -i 78 -a 1 -x {0.0 1.0 37 ------- null}
+ -t 0.30272 -s 0 -d 1 -p tcp -e 1040 -c 1 -i 79 -a 1 -x {0.0 1.0 38 ------- null}
r -t 0.30288 -s 3 -d 2 -p ack -e 40 -c 2 -i 71 -a 2 -x {3.0 2.0 6 ------- null}
+ -t 0.30288 -s 2 -d 3 -p tcp -e 1040 -c 2 -i 80 -a 2 -x {2.0 3.0 13 ------- null}
+ -t 0.30288 -s 2 -d 3 -p tcp -e 1040 -c 2 -i 81 -a 2 -x {2.0 3.0 14 ------- null}
- -t 0.30736 -s 0 -d 1 -p tcp -e 1040 -c 1 -i 38 -a 1 -x {0.0 1.0 22 ------- null}
h -t 0.30736 -s 0 -d 1 -p tcp -e 1040 -c 1 -i 38 -a 1 -x {0.0 1.0 -1 ------- null}
- -t 0.30752 -s 2 -d 3 -p tcp -e 1040 -c 2 -i 69 -a 2 -x {2.0 3.0 10 ------- null}
h -t 0.30752 -s 2 -d 3 -p tcp -e 1040 -c 2 -i 69 -a 2 -x {2.0 3.0 -1 ------- null}
r -t 0.30904 -s 0 -d 1 -p tcp -e 1040 -c 1 -i 35 -a 1 -x {0.0 1.0 20 ------- null}
+ -t 0.30904 -s 1 -d 0 -p ack -e 40 -c 1 -i 82 -a 1 -x {1.0 0.0 20 ------- null}
- -t 0.30904 -s 1 -d 0 -p ack -e 40 -c 1 -i 82 -a 1 -x {1.0 0.0 20 ------- null}
h -t 0.30904 -s 1 -d 0 -p ack -e 40 -c 1 -i 82 -a 1 -x {1.0 0.0 -1 ------- null}
r -t 0.3092 -s 2 -d 3 -p tcp -e 1040 -c 2 -i 63 -a 2 -x {2.0 3.0 8 ------- null}
+ -t 0.3092 -s 3 -d 2 -p ack -e 40 -c 2 -i 83 -a 2 -x {3.0 2.0 8 ------- null}
- -t 0.3092 -s 3 -d 2 -p ack -e 40 -c 2 -i 83 -a 2 -x {3.0 2.0 8 ------- null}
h -t 0.3092 -s 3 -d 2 -p ack -e 40 -c 2 -i 83 -a 2 -x {3.0 2.0 -1 ------- null}
r -t 0.31104 -s 1 -d 0 -p ack -e 40 -c 1 -i 76 -a 1 -x {1.0 0.0 19 ------- null}
+ -t 0.31104 -s 0 -d 1 -p tcp -e 1040 -c 1 -i 84 -a 1 -x {0.0 1.0 39 ------- null}
r -t 0.3112 -s 3 -d 2 -p ack -e 40 -c 2 -i 77 -a 2 -x {3.0 2.0 7 ------- null}
+ -t 0.3112 -s 2 -d 3 -p tcp -e 1040 -c 2 -i 85 -a 2 -x {2.0 3.0 15 ------- null}
+ -t 0.3112 -s 2 -d 3 -p tcp -e 1040 -c 2 -i 86 -a 2 -x {2.0 3.0 16 ------- null}
- -t 0.31568 -s 0 -d 1 -p tcp -e 1040 -c 1 -i 41 -a 1 -x {0.0 1.0 23 ------- null}
h -t 0.31568 -s 0 -d 1 -p tcp -e 1040 -c 1 -i 41 -a 1 -x {0.0 1.0 -1 ------- null}
- -t 0.31584 -s 2 -d 3 -p tcp -e 1040 -c 2 -i 74 -a 2 -x {2.0 3.0 11 ------- null}
h -t 0.31584 -s 2 -d 3 -p tcp -e 1040 -c 2 -i 74 -a 2 -x {2.0 3.0 -1 ------- null}
r -t 0.31736 -s 0 -d 1 -p tcp -e 1040 -c 1 -i 37 -a 1 -x {0.0 1.0 21 ------- null}
+ -t 0.31736 -s 1 -d 0 -p ack -e 40 -c 1 -i 87 -a 1 -x {1.0 0.0 21 ------- null}
- -t 0.31736 -s 1 -d 0 -p ack -e 40 -c 1 -i 87 -a 1 -x {1.0 0.0 21 ------- null}
h -t 0.31736 -s 1 -d 0 -p ack -e 40 -c 1 -i 87 -a 1 -x {1.0 0.0 -1 ------- null}
r -t 0.31752 -s 2 -d 3 -p tcp -e 1040 -c 2 -i 68 -a 2 -x {2.0 3.0 9 ------- null}
+ -t 0.31752 -s 3 -d 2 -p ack -e 40 -c 2 -i 88 -a 2 -x {3.0 2.0 9 ------- null}
- -t 0.31752 -s 3 -d 2 -p ack -e 40 -c 2 -i 88 -a 2 -x {3.0 2.0 9 ------- null}
h -t 0.31752 -s 3 -d 2 -p ack -e 40 -c 2 -i 88 -a 2 -x {3.0 2.0 -1 ------- null}
r -t 0.31936 -s 1 -d 0 -p ack -e 40 -c 1 -i 82 -a 1 -x {1.0 0.0 20 ------- null}
+ -t 0.31936 -s 0 -d 1 -p tcp -e 1040 -c 1 -i 89 -a 1 -x {0.0 1.0 40 ------- null}
r -t 0.31952 -s 3 -d 2 -p ack -e 40 -c 2 -i 83 -a 2 -x {3.0 2.0 8 ------- null}
+ -t 0.31952 -s 2 -d 3 -p tcp -e 1040 -c 2 -i 90 -a 2 -x {2.0 3.0 17 ------- null}
+ -t 0.31952 -s 2 -d 3 -p tcp -e 1040 -c 2 -i 91 -a 2 -x {2.0 3.0 18 ------- null}
- -t 0.324 -s 0 -d 1 -p tcp -e 1040 -c 1 -i 42 -a 1 -x {0.0 1.0 24 ------- null}
h -t 0.324 -s 0 -d 1 -p tcp -e 1040 -c 1 -i 42 -a 1 -x {0.0 1.0 -1 ------- null}
- -t 0.32416 -s 2 -d 3 -p tcp -e 1040 -c 2 -i 75 -a 2 -x {2.0 3.0 12 ------- null}
h -t 0.32416 -s 2 -d 3 -p tcp -e 1040 -c 2 -i 75 -a 2 -x {2.0 3.0 -1 ------- null}
r -t 0.32568 -s 0 -d 1 -p tcp -e 1040 -c 1 -i 38 -a 1 -x {0.0 1.0 22 ------- null}
+ -t 0.32568 -s 1 -d 0 -p ack -e 40 -c 1 -i 92 -a 1 -x {1.0 0.0 22 ------- null}
- -t 0.32568 -s 1 -d 0 -p ack -e 40 -c 1 -i 92 -a 1 -x {1.0 0.0 22 ------- null}
h -t 0.32568 -s 1 -d 0 -p ack -e 40 -c 1 -i 92 -a 1 -x {1.0 0.0 -1 ------- null}
r -t 0.32584 -s 2 -d 3 -p tcp -e 1040 -c 2 -i 69 -a 2 -x {2.0 3.0 10 ------- null}
+ -t 0.32584 -s 3 -d 2 -p ack -e 40 -c 2 -i 93 -a 2 -x {3.0 2.0 10 ------- null}
- -t 0.32584 -s 3 -d 2 -p ack -e 40 -c 2 -i 93 -a 2 -x {3.0 2.0 10 ------- null}
h -t 0.32584 -s 3 -d 2 -p ack -e 40 -c 2 -i 93 -a 2 -x {3.0 2.0 -1 ------- null}
r -t 0.32768 -s 1 -d 0 -p ack -e 40 -c 1 -i 87 -a 1 -x {1.0 0.0 21 ------- null}
+ -t 0.32768 -s 0 -d 1 -p tcp -e 1040 -c 1 -i 94 -a 1 -x {0.0 1.0 41 ------- null}
r -t 0.32784 -s 3 -d 2 -p ack -e 40 -c 2 -i 88 -a 2 -x {3.0 2.0 9 ------- null}
+ -t 0.32784 -s 2 -d 3 -p tcp -e 1040 -c 2 -i 95 -a 2 -x {2.0 3.0 19 ------- null}
+ -t 0.32784 -s 2 -d 3 -p tcp -e 1040 -c 2 -i 96 -a 2 -x {2.0 3.0 20 ------- null}
- -t 0.33232 -s 0 -d 1 -p tcp -e 1040 -c 1 -i 47 -a 1 -x {0.0 1.0 25 ------- null}
h -t 0.33232 -s 0 -d 1 -p tcp -e 1040 -c 1 -i 47 -a 1 -x {0.0 1.0 -1 ------- null}
- -t 0.33248 -s 2 -d 3 -p tcp -e 1040 -c 2 -i 80 -a 2 -x {2.0 3.0 13 ------- null}
h -t 0.33248 -s 2 -d 3 -p tcp -e 1040 -c 2 -i 80 -a 2 -x {2.0 3.0 -1 ------- null}
r -t 0.334 -s 0 -d 1 -p tcp -e 1040 -c 1 -i 41 -a 1 -x {0.0 1.0 23 ------- null}
+ -t 0.334 -s 1 -d 0 -p ack -e 40 -c 1 -i 97 -a 1 -x {1.0 0.0 23 ------- null}
- -t 0.334 -s 1 -d 0 -p ack -e 40 -c 1 -i 97 -a 1 -x {1.0 0.0 23 ------- null}
h -t 0.334 -s 1 -d 0 -p ack -e 40 -c 1 -i 97 -a 1 -x {1.0 0.0 -1 ------- null}
r -t 0.33416 -s 2 -d 3 -p tcp -e 1040 -c 2 -i 74 -a 2 -x {2.0 3.0 11 ------- null}
+ -t 0.33416 -s 3 -d 2 -p ack -e 40 -c 2 -i 98 -a 2 -x {3.0 2.0 11 ------- null}
- -t 0.33416 -s 3 -d 2 -p ack -e 40 -c 2 -i 98 -a 2 -x {3.0 2.0 11 ------- null}
h -t 0.33416 -s 3 -d 2 -p ack -e 40 -c 2 -i 98 -a 2 -x {3.0 2.0 -1 ------- null}
r -t 0.336 -s 1 -d 0 -p ack -e 40 -c 1 -i 92 -a 1 -x {1.0 0.0 22 ------- null}
+ -t 0.336 -s 0 -d 1 -p tcp -e 1040 -c 1 -i 99 -a 1 -x {0.0 1.0 42 ------- null}
r -t 0.33616 -s 3 -d 2 -p ack -e 40 -c 2 -i 93 -a 2 -x {3.0 2.0 10 ------- null}
+ -t 0.33616 -s 2 -d 3 -p tcp -e 1040 -c 2 -i 100 -a 2 -x {2.0 3.0 21 ------- null}
+ -t 0.33616 -s 2 -d 3 -p tcp -e 1040 -c 2 -i 101 -a 2 -x {2.0 3.0 22 ------- null}
- -t 0.34064 -s 0 -d 1 -p tcp -e 1040 -c 1 -i 48 -a 1 -x {0.0 1.0 26 ------- null}
h -t 0.34064 -s 0 -d 1 -p tcp -e 1040 -c 1 -i 48 -a 1 -x {0.0 1.0 -1 ------- null}
- -t 0.3408 -s 2 -d 3 -p tcp -e 1040 -c 2 -i 81 -a 2 -x {2.0 3.0 14 ------- null}
h -t 0.3408 -s 2 -d 3 -p tcp -e 1040 -c 2 -i 81 -a 2 -x {2.0 3.0 -1 ------- null}
r -t 0.34232 -s 0 -d 1 -p tcp -e 1040 -c 1 -i 42 -a 1 -x {0.0 1.0 24 ------- null}
+ -t 0.34232 -s 1 -d 0 -p ack -e 40 -c 1 -i 102 -a 1 -x {1.0 0.0 24 ------- null}
- -t 0.34232 -s 1 -d 0 -p ack -e 40 -c 1 -i 102 -a 1 -x {1.0 0.0 24 ------- null}
h -t 0.34232 -s 1 -d 0 -p ack -e 40 -c 1 -i 102 -a 1 -x {1.0 0.0 -1 ------- null}
r -t 0.34248 -s 2 -d 3 -p tcp -e 1040 -c 2 -i 75 -a 2 -x {2.0 3.0 12 ------- null}
+ -t 0.34248 -s 3 -d 2 -p ack -e 40 -c 2 -i 103 -a 2 -x {3.0 2.0 12 ------- null}
- -t 0.34248 -s 3 -d 2 -p ack -e 40 -c 2 -i 103 -a 2 -x {3.0 2.0 12 ------- null}
h -t 0.34248 -s 3 -d 2 -p ack -e 40 -c 2 -i 103 -a 2 -x {3.0 2.0 -1 ------- null}
r -t 0.34432 -s 1 -d 0 -p ack -e 40 -c 1 -i 97 -a 1 -x {1.0 0.0 23 ------- null}
+ -t 0.34432 -s 0 -d 1 -p tcp -e 1040 -c 1 -i 104 -a 1 -x {0.0 1.0 43 ------- null}
r -t 0.34448 -s 3 -d 2 -p ack -e 40 -c 2 -i 98 -a 2 -x {3.0 2.0 11 ------- null}
+ -t 0.34448 -s 2 -d 3 -p tcp -e 1040 -c 2 -i 105 -a 2 -x {2.0 3.0 23 ------- null}
+ -t 0.34448 -s 2 -d 3 -p tcp -e 1040 -c 2 -i 106 -a 2 -x {2.0 3.0 24 ------- null}
- -t 0.34896 -s 0 -d 1 -p tcp -e 1040 -c 1 -i 52 -a 1 -x {0.0 1.0 27 ------- null}
h -t 0.34896 -s 0 -d 1 -p tcp -e 1040 -c 1 -i 52 -a 1 -x {0.0 1.0 -1 ------- null}
- -t 0.34912 -s 2 -d 3 -p tcp -e 1040 -c 2 -i 85 -a 2 -x {2.0 3.0 15 ------- null}
h -t 0.34912 -s 2 -d 3 -p tcp -e 1040 -c 2 -i 85 -a 2 -x {2.0 3.0 -1 ------- null}
r -t 0.35064 -s 0 -d 1 -p tcp -e 1040 -c 1 -i 47 -a 1 -x {0.0 1.0 25 ------- null}
+ -t 0.35064 -s 1 -d 0 -p ack -e 40 -c 1 -i 107 -a 1 -x {1.0 0.0 25 ------- null}
- -t 0.35064 -s 1 -d 0 -p ack -e 40 -c 1 -i 107 -a 1 -x {1.0 0.0 25 ------- null}
h -t 0.35064 -s 1 -d 0 -p ack -e 40 -c 1 -i 107 -a 1 -x {1.0 0.0 -1 ------- null}
r -t 0.3508 -s 2 -d 3 -p tcp -e 1040 -c 2 -i 80 -a 2 -x {2.0 3.0 13 ------- null}
+ -t 0.3508 -s 3 -d 2 -p ack -e 40 -c 2 -i 108 -a 2 -x {3.0 2.0 13 ------- null}
- -t 0.3508 -s 3 -d 2 -p ack -e 40 -c 2 -i 108 -a 2 -x {3.0 2.0 13 ------- null}
h -t 0.3508 -s 3 -d 2 -p ack -e 40 -c 2 -i 108 -a 2 -x {3.0 2.0 -1 ------- null}
r -t 0.35264 -s 1 -d 0 -p ack -e 40 -c 1 -i 102 -a 1 -x {1.0 0.0 24 ------- null}
+ -t 0.35264 -s 0 -d 1 -p tcp -e 1040 -c 1 -i 109 -a 1 -x {0.0 1.0 44 ------- null}
r -t 0.3528 -s 3 -d 2 -p ack -e 40 -c 2 -i 103 -a 2 -x {3.0 2.0 12 ------- null}
+ -t 0.3528 -s 2 -d 3 -p tcp -e 1040 -c 2 -i 110 -a 2 -x {2.0 3.0 25 ------- null}
+ -t 0.3528 -s 2 -d 3 -p tcp -e 1040 -c 2 -i 111 -a 2 -x {2.0 3.0 26 ------- null}
- -t 0.35728 -s 0 -d 1 -p tcp -e 1040 -c 1 -i 53 -a 1 -x {0.0 1.0 28 ------- null}
h -t 0.35728 -s 0 -d 1 -p tcp -e 1040 -c 1 -i 53 -a 1 -x {0.0 1.0 -1 ------- null}
- -t 0.35744 -s 2 -d 3 -p tcp -e 1040 -c 2 -i 86 -a 2 -x {2.0 3.0 16 ------- null}