V -t * -v 1.0a5 -a 0
A -t * -n 1 -p 0 -o 0x7fffffff -c 30 -a 1
A -t * -h 1 -m 1073741823 -s 0
c -t * -i 1 -n red
n -t * -a 4 -s 4 -S UP -v circle -c black -i black
n -t * -a 0 -s 0 -S UP -v circle -c black -i black
n -t * -a 5 -s 5 -S UP -v circle -c black -i black
n -t * -a 1 -s 1 -S UP -v box -c red -i red
n -t * -a 6 -s 6 -S UP -v circle -c black -i black
n -t * -a 2 -s 2 -S UP -v circle -c black -i black
n -t * -a 7 -s 7 -S UP -v circle -c black -i black
n -t * -a 3 -s 3 -S UP -v circle -c black -i black
l -t * -s 2 -d 3 -S UP -r 1250000 -D 0.01 -c black -o right
l -t * -s 3 -d 4 -S UP -r 1000000 -D 0.01 -c black -o right-up
l -t * -s 3 -d 5 -S UP -r 1000000 -D 0.01 -c black -o right-down
l -t * -s 4 -d 6 -S UP -r 1000000 -D 0.01 -c black -o right
l -t * -s 5 -d 7 -S UP -r 1000000 -D 0.01 -c black -o right
l -t * -s 2 -d 0 -S UP -r 1000000 -D 0.01 -c black -o left-up
l -t * -s 2 -d 1 -S UP -r 1000000 -D 0.01 -c black -o left-down
+ -t 0.1 -s 0 -d 2 -p tcp -e 40 -c 0 -i 0 -a 0 -x {0.0 6.0 0 ------- null}
- -t 0.1 -s 0 -d 2 -p tcp -e 40 -c 0 -i 0 -a 0 -x {0.0 6.0 0 ------- null}
h -t 0.1 -s 0 -d 2 -p tcp -e 40 -c 0 -i 0 -a 0 -x {0.0 6.0 -1 ------- null}
+ -t 0.1 -s 1 -d 2 -p cbr -e 210 -c 0 -i 1 -a 0 -x {1.0 7.0 0 ------- null}
- -t 0.1 -s 1 -d 2 -p cbr -e 210 -c 0 -i 1 -a 0 -x {1.0 7.0 0 ------- null}
h -t 0.1 -s 1 -d 2 -p cbr -e 210 -c 0 -i 1 -a 0 -x {1.0 7.0 -1 ------- null}
+ -t 0.10375 -s 1 -d 2 -p cbr -e 210 -c 0 -i 2 -a 0 -x {1.0 7.0 1 ------- null}
- -t 0.10375 -s 1 -d 2 -p cbr -e 210 -c 0 -i 2 -a 0 -x {1.0 7.0 1 ------- null}
h -t 0.10375 -s 1 -d 2 -p cbr -e 210 -c 0 -i 2 -a 0 -x {1.0 7.0 -1 ------- null}
+ -t 0.1075 -s 1 -d 2 -p cbr -e 210 -c 0 -i 3 -a 0 -x {1.0 7.0 2 ------- null}
- -t 0.1075 -s 1 -d 2 -p cbr -e 210 -c 0 -i 3 -a 0 -x {1.0 7.0 2 ------- null}
h -t 0.1075 -s 1 -d 2 -p cbr -e 210 -c 0 -i 3 -a 0 -x {1.0 7.0 -1 ------- null}
r -t 0.11032 -s 0 -d 2 -p tcp -e 40 -c 0 -i 0 -a 0 -x {0.0 6.0 0 ------- null}
+ -t 0.11032 -s 2 -d 3 -p tcp -e 40 -c 0 -i 0 -a 0 -x {0.0 6.0 0 ------- null}
- -t 0.11032 -s 2 -d 3 -p tcp -e 40 -c 0 -i 0 -a 0 -x {0.0 6.0 0 ------- null}
h -t 0.11032 -s 2 -d 3 -p tcp -e 40 -c 0 -i 0 -a 0 -x {0.0 6.0 -1 ------- null}
+ -t 0.11125 -s 1 -d 2 -p cbr -e 210 -c 0 -i 4 -a 0 -x {1.0 7.0 3 ------- null}
- -t 0.11125 -s 1 -d 2 -p cbr -e 210 -c 0 -i 4 -a 0 -x {1.0 7.0 3 ------- null}
h -t 0.11125 -s 1 -d 2 -p cbr -e 210 -c 0 -i 4 -a 0 -x {1.0 7.0 -1 ------- null}
r -t 0.11168 -s 1 -d 2 -p cbr -e 210 -c 0 -i 1 -a 0 -x {1.0 7.0 0 ------- null}
+ -t 0.11168 -s 2 -d 3 -p cbr -e 210 -c 0 -i 1 -a 0 -x {1.0 7.0 0 ------- null}
- -t 0.11168 -s 2 -d 3 -p cbr -e 210 -c 0 -i 1 -a 0 -x {1.0 7.0 0 ------- null}
h -t 0.11168 -s 2 -d 3 -p cbr -e 210 -c 0 -i 1 -a 0 -x {1.0 7.0 -1 ------- null}
+ -t 0.115 -s 1 -d 2 -p cbr -e 210 -c 0 -i 5 -a 0 -x {1.0 7.0 4 ------- null}
- -t 0.115 -s 1 -d 2 -p cbr -e 210 -c 0 -i 5 -a 0 -x {1.0 7.0 4 ------- null}
h -t 0.115 -s 1 -d 2 -p cbr -e 210 -c 0 -i 5 -a 0 -x {1.0 7.0 -1 ------- null}
r -t 0.11543 -s 1 -d 2 -p cbr -e 210 -c 0 -i 2 -a 0 -x {1.0 7.0 1 ------- null}
+ -t 0.11543 -s 2 -d 3 -p cbr -e 210 -c 0 -i 2 -a 0 -x {1.0 7.0 1 ------- null}
- -t 0.11543 -s 2 -d 3 -p cbr -e 210 -c 0 -i 2 -a 0 -x {1.0 7.0 1 ------- null}
h -t 0.11543 -s 2 -d 3 -p cbr -e 210 -c 0 -i 2 -a 0 -x {1.0 7.0 -1 ------- null}
+ -t 0.11875 -s 1 -d 2 -p cbr -e 210 -c 0 -i 6 -a 0 -x {1.0 7.0 5 ------- null}
- -t 0.11875 -s 1 -d 2 -p cbr -e 210 -c 0 -i 6 -a 0 -x {1.0 7.0 5 ------- null}
h -t 0.11875 -s 1 -d 2 -p cbr -e 210 -c 0 -i 6 -a 0 -x {1.0 7.0 -1 ------- null}
r -t 0.11918 -s 1 -d 2 -p cbr -e 210 -c 0 -i 3 -a 0 -x {1.0 7.0 2 ------- null}
+ -t 0.11918 -s 2 -d 3 -p cbr -e 210 -c 0 -i 3 -a 0 -x {1.0 7.0 2 ------- null}
- -t 0.11918 -s 2 -d 3 -p cbr -e 210 -c 0 -i 3 -a 0 -x {1.0 7.0 2 ------- null}
h -t 0.11918 -s 2 -d 3 -p cbr -e 210 -c 0 -i 3 -a 0 -x {1.0 7.0 -1 ------- null}
r -t 0.120576 -s 2 -d 3 -p tcp -e 40 -c 0 -i 0 -a 0 -x {0.0 6.0 0 ------- null}
+ -t 0.120576 -s 3 -d 4 -p tcp -e 40 -c 0 -i 0 -a 0 -x {0.0 6.0 0 ------- null}
- -t 0.120576 -s 3 -d 4 -p tcp -e 40 -c 0 -i 0 -a 0 -x {0.0 6.0 0 ------- null}
h -t 0.120576 -s 3 -d 4 -p tcp -e 40 -c 0 -i 0 -a 0 -x {0.0 6.0 -1 ------- null}
+ -t 0.1225 -s 1 -d 2 -p cbr -e 210 -c 0 -i 7 -a 0 -x {1.0 7.0 6 ------- null}
- -t 0.1225 -s 1 -d 2 -p cbr -e 210 -c 0 -i 7 -a 0 -x {1.0 7.0 6 ------- null}
h -t 0.1225 -s 1 -d 2 -p cbr -e 210 -c 0 -i 7 -a 0 -x {1.0 7.0 -1 ------- null}
r -t 0.12293 -s 1 -d 2 -p cbr -e 210 -c 0 -i 4 -a 0 -x {1.0 7.0 3 ------- null}
+ -t 0.12293 -s 2 -d 3 -p cbr -e 210 -c 0 -i 4 -a 0 -x {1.0 7.0 3 ------- null}
- -t 0.12293 -s 2 -d 3 -p cbr -e 210 -c 0 -i 4 -a 0 -x {1.0 7.0 3 ------- null}
h -t 0.12293 -s 2 -d 3 -p cbr -e 210 -c 0 -i 4 -a 0 -x {1.0 7.0 -1 ------- null}
r -t 0.123024 -s 2 -d 3 -p cbr -e 210 -c 0 -i 1 -a 0 -x {1.0 7.0 0 ------- null}
+ -t 0.123024 -s 3 -d 5 -p cbr -e 210 -c 0 -i 1 -a 0 -x {1.0 7.0 0 ------- null}
- -t 0.123024 -s 3 -d 5 -p cbr -e 210 -c 0 -i 1 -a 0 -x {1.0 7.0 0 ------- null}
h -t 0.123024 -s 3 -d 5 -p cbr -e 210 -c 0 -i 1 -a 0 -x {1.0 7.0 -1 ------- null}
+ -t 0.12625 -s 1 -d 2 -p cbr -e 210 -c 0 -i 8 -a 0 -x {1.0 7.0 7 ------- null}
- -t 0.12625 -s 1 -d 2 -p cbr -e 210 -c 0 -i 8 -a 0 -x {1.0 7.0 7 ------- null}
h -t 0.12625 -s 1 -d 2 -p cbr -e 210 -c 0 -i 8 -a 0 -x {1.0 7.0 -1 ------- null}
r -t 0.12668 -s 1 -d 2 -p cbr -e 210 -c 0 -i 5 -a 0 -x {1.0 7.0 4 ------- null}
+ -t 0.12668 -s 2 -d 3 -p cbr -e 210 -c 0 -i 5 -a 0 -x {1.0 7.0 4 ------- null}
- -t 0.12668 -s 2 -d 3 -p cbr -e 210 -c 0 -i 5 -a 0 -x {1.0 7.0 4 ------- null}
h -t 0.12668 -s 2 -d 3 -p cbr -e 210 -c 0 -i 5 -a 0 -x {1.0 7.0 -1 ------- null}
r -t 0.126774 -s 2 -d 3 -p cbr -e 210 -c 0 -i 2 -a 0 -x {1.0 7.0 1 ------- null}
+ -t 0.126774 -s 3 -d 5 -p cbr -e 210 -c 0 -i 2 -a 0 -x {1.0 7.0 1 ------- null}
- -t 0.126774 -s 3 -d 5 -p cbr -e 210 -c 0 -i 2 -a 0 -x {1.0 7.0 1 ------- null}
h -t 0.126774 -s 3 -d 5 -p cbr -e 210 -c 0 -i 2 -a 0 -x {1.0 7.0 -1 ------- null}
+ -t 0.13 -s 1 -d 2 -p cbr -e 210 -c 0 -i 9 -a 0 -x {1.0 7.0 8 ------- null}
- -t 0.13 -s 1 -d 2 -p cbr -e 210 -c 0 -i 9 -a 0 -x {1.0 7.0 8 ------- null}
h -t 0.13 -s 1 -d 2 -p cbr -e 210 -c 0 -i 9 -a 0 -x {1.0 7.0 -1 ------- null}
r -t 0.13043 -s 1 -d 2 -p cbr -e 210 -c 0 -i 6 -a 0 -x {1.0 7.0 5 ------- null}
+ -t 0.13043 -s 2 -d 3 -p cbr -e 210 -c 0 -i 6 -a 0 -x {1.0 7.0 5 ------- null}
- -t 0.13043 -s 2 -d 3 -p cbr -e 210 -c 0 -i 6 -a 0 -x {1.0 7.0 5 ------- null}
h -t 0.13043 -s 2 -d 3 -p cbr -e 210 -c 0 -i 6 -a 0 -x {1.0 7.0 -1 ------- null}
r -t 0.130524 -s 2 -d 3 -p cbr -e 210 -c 0 -i 3 -a 0 -x {1.0 7.0 2 ------- null}
+ -t 0.130524 -s 3 -d 5 -p cbr -e 210 -c 0 -i 3 -a 0 -x {1.0 7.0 2 ------- null}
- -t 0.130524 -s 3 -d 5 -p cbr -e 210 -c 0 -i 3 -a 0 -x {1.0 7.0 2 ------- null}
h -t 0.130524 -s 3 -d 5 -p cbr -e 210 -c 0 -i 3 -a 0 -x {1.0 7.0 -1 ------- null}
r -t 0.130896 -s 3 -d 4 -p tcp -e 40 -c 0 -i 0 -a 0 -x {0.0 6.0 0 ------- null}
+ -t 0.130896 -s 4 -d 6 -p tcp -e 40 -c 0 -i 0 -a 0 -x {0.0 6.0 0 ------- null}
- -t 0.130896 -s 4 -d 6 -p tcp -e 40 -c 0 -i 0 -a 0 -x {0.0 6.0 0 ------- null}
h -t 0.130896 -s 4 -d 6 -p tcp -e 40 -c 0 -i 0 -a 0 -x {0.0 6.0 -1 ------- null}
+ -t 0.13375 -s 1 -d 2 -p cbr -e 210 -c 0 -i 10 -a 0 -x {1.0 7.0 9 ------- null}
- -t 0.13375 -s 1 -d 2 -p cbr -e 210 -c 0 -i 10 -a 0 -x {1.0 7.0 9 ------- null}
h -t 0.13375 -s 1 -d 2 -p cbr -e 210 -c 0 -i 10 -a 0 -x {1.0 7.0 -1 ------- null}
r -t 0.13418 -s 1 -d 2 -p cbr -e 210 -c 0 -i 7 -a 0 -x {1.0 7.0 6 ------- null}
+ -t 0.13418 -s 2 -d 3 -p cbr -e 210 -c 0 -i 7 -a 0 -x {1.0 7.0 6 ------- null}
- -t 0.13418 -s 2 -d 3 -p cbr -e 210 -c 0 -i 7 -a 0 -x {1.0 7.0 6 ------- null}
h -t 0.13418 -s 2 -d 3 -p cbr -e 210 -c 0 -i 7 -a 0 -x {1.0 7.0 -1 ------- null}
r -t 0.134274 -s 2 -d 3 -p cbr -e 210 -c 0 -i 4 -a 0 -x {1.0 7.0 3 ------- null}
+ -t 0.134274 -s 3 -d 5 -p cbr -e 210 -c 0 -i 4 -a 0 -x {1.0 7.0 3 ------- null}
- -t 0.134274 -s 3 -d 5 -p cbr -e 210 -c 0 -i 4 -a 0 -x {1.0 7.0 3 ------- null}
h -t 0.134274 -s 3 -d 5 -p cbr -e 210 -c 0 -i 4 -a 0 -x {1.0 7.0 -1 ------- null}
r -t 0.134704 -s 3 -d 5 -p cbr -e 210 -c 0 -i 1 -a 0 -x {1.0 7.0 0 ------- null}
+ -t 0.134704 -s 5 -d 7 -p cbr -e 210 -c 0 -i 1 -a 0 -x {1.0 7.0 0 ------- null}
- -t 0.134704 -s 5 -d 7 -p cbr -e 210 -c 0 -i 1 -a 0 -x {1.0 7.0 0 ------- null}
h -t 0.134704 -s 5 -d 7 -p cbr -e 210 -c 0 -i 1 -a 0 -x {1.0 7.0 -1 ------- null}
+ -t 0.1375 -s 1 -d 2 -p cbr -e 210 -c 0 -i 11 -a 0 -x {1.0 7.0 10 ------- null}
- -t 0.1375 -s 1 -d 2 -p cbr -e 210 -c 0 -i 11 -a 0 -x {1.0 7.0 10 ------- null}
h -t 0.1375 -s 1 -d 2 -p cbr -e 210 -c 0 -i 11 -a 0 -x {1.0 7.0 -1 ------- null}
r -t 0.13793 -s 1 -d 2 -p cbr -e 210 -c 0 -i 8 -a 0 -x {1.0 7.0 7 ------- null}
+ -t 0.13793 -s 2 -d 3 -p cbr -e 210 -c 0 -i 8 -a 0 -x {1.0 7.0 7 ------- null}
- -t 0.13793 -s 2 -d 3 -p cbr -e 210 -c 0 -i 8 -a 0 -x {1.0 7.0 7 ------- null}
h -t 0.13793 -s 2 -d 3 -p cbr -e 210 -c 0 -i 8 -a 0 -x {1.0 7.0 -1 ------- null}
r -t 0.138024 -s 2 -d 3 -p cbr -e 210 -c 0 -i 5 -a 0 -x {1.0 7.0 4 ------- null}
+ -t 0.138024 -s 3 -d 5 -p cbr -e 210 -c 0 -i 5 -a 0 -x {1.0 7.0 4 ------- null}
- -t 0.138024 -s 3 -d 5 -p cbr -e 210 -c 0 -i 5 -a 0 -x {1.0 7.0 4 ------- null}
h -t 0.138024 -s 3 -d 5 -p cbr -e 210 -c 0 -i 5 -a 0 -x {1.0 7.0 -1 ------- null}
r -t 0.138454 -s 3 -d 5 -p cbr -e 210 -c 0 -i 2 -a 0 -x {1.0 7.0 1 ------- null}
+ -t 0.138454 -s 5 -d 7 -p cbr -e 210 -c 0 -i 2 -a 0 -x {1.0 7.0 1 ------- null}
- -t 0.138454 -s 5 -d 7 -p cbr -e 210 -c 0 -i 2 -a 0 -x {1.0 7.0 1 ------- null}
h -t 0.138454 -s 5 -d 7 -p cbr -e 210 -c 0 -i 2 -a 0 -x {1.0 7.0 -1 ------- null}
r -t 0.141216 -s 4 -d 6 -p tcp -e 40 -c 0 -i 0 -a 0 -x {0.0 6.0 0 ------- null}
+ -t 0.141216 -s 6 -d 4 -p ack -e 40 -c 0 -i 12 -a 0 -x {6.0 0.0 0 ------- null}
- -t 0.141216 -s 6 -d 4 -p ack -e 40 -c 0 -i 12 -a 0 -x {6.0 0.0 0 ------- null}
h -t 0.141216 -s 6 -d 4 -p ack -e 40 -c 0 -i 12 -a 0 -x {6.0 0.0 -1 ------- null}
+ -t 0.14125 -s 1 -d 2 -p cbr -e 210 -c 0 -i 13 -a 0 -x {1.0 7.0 11 ------- null}
- -t 0.14125 -s 1 -d 2 -p cbr -e 210 -c 0 -i 13 -a 0 -x {1.0 7.0 11 ------- null}
h -t 0.14125 -s 1 -d 2 -p cbr -e 210 -c 0 -i 13 -a 0 -x {1.0 7.0 -1 ------- null}
r -t 0.14168 -s 1 -d 2 -p cbr -e 210 -c 0 -i 9 -a 0 -x {1.0 7.0 8 ------- null}
+ -t 0.14168 -s 2 -d 3 -p cbr -e 210 -c 0 -i 9 -a 0 -x {1.0 7.0 8 ------- null}
- -t 0.14168 -s 2 -d 3 -p cbr -e 210 -c 0 -i 9 -a 0 -x {1.0 7.0 8 ------- null}
h -t 0.14168 -s 2 -d 3 -p cbr -e 210 -c 0 -i 9 -a 0 -x {1.0 7.0 -1 ------- null}
r -t 0.141774 -s 2 -d 3 -p cbr -e 210 -c 0 -i 6 -a 0 -x {1.0 7.0 5 ------- null}
+ -t 0.141774 -s 3 -d 5 -p cbr -e 210 -c 0 -i 6 -a 0 -x {1.0 7.0 5 ------- null}
- -t 0.141774 -s 3 -d 5 -p cbr -e 210 -c 0 -i 6 -a 0 -x {1.0 7.0 5 ------- null}
h -t 0.141774 -s 3 -d 5 -p cbr -e 210 -c 0 -i 6 -a 0 -x {1.0 7.0 -1 ------- null}
r -t 0.142204 -s 3 -d 5 -p cbr -e 210 -c 0 -i 3 -a 0 -x {1.0 7.0 2 ------- null}
+ -t 0.142204 -s 5 -d 7 -p cbr -e 210 -c 0 -i 3 -a 0 -x {1.0 7.0 2 ------- null}
- -t 0.142204 -s 5 -d 7 -p cbr -e 210 -c 0 -i 3 -a 0 -x {1.0 7.0 2 ------- null}
h -t 0.142204 -s 5 -d 7 -p cbr -e 210 -c 0 -i 3 -a 0 -x {1.0 7.0 -1 ------- null}
+ -t 0.145 -s 1 -d 2 -p cbr -e 210 -c 0 -i 14 -a 0 -x {1.0 7.0 12 ------- null}
- -t 0.145 -s 1 -d 2 -p cbr -e 210 -c 0 -i 14 -a 0 -x {1.0 7.0 12 ------- null}
h -t 0.145 -s 1 -d 2 -p cbr -e 210 -c 0 -i 14 -a 0 -x {1.0 7.0 -1 ------- null}
r -t 0.14543 -s 1 -d 2 -p cbr -e 210 -c 0 -i 10 -a 0 -x {1.0 7.0 9 ------- null}
+ -t 0.14543 -s 2 -d 3 -p cbr -e 210 -c 0 -i 10 -a 0 -x {1.0 7.0 9 ------- null}
- -t 0.14543 -s 2 -d 3 -p cbr -e 210 -c 0 -i 10 -a 0 -x {1.0 7.0 9 ------- null}
h -t 0.14543 -s 2 -d 3 -p cbr -e 210 -c 0 -i 10 -a 0 -x {1.0 7.0 -1 ------- null}
r -t 0.145524 -s 2 -d 3 -p cbr -e 210 -c 0 -i 7 -a 0 -x {1.0 7.0 6 ------- null}
+ -t 0.145524 -s 3 -d 5 -p cbr -e 210 -c 0 -i 7 -a 0 -x {1.0 7.0 6 ------- null}
- -t 0.145524 -s 3 -d 5 -p cbr -e 210 -c 0 -i 7 -a 0 -x {1.0 7.0 6 ------- null}
h -t 0.145524 -s 3 -d 5 -p cbr -e 210 -c 0 -i 7 -a 0 -x {1.0 7.0 -1 ------- null}
r -t 0.145954 -s 3 -d 5 -p cbr -e 210 -c 0 -i 4 -a 0 -x {1.0 7.0 3 ------- null}
+ -t 0.145954 -s 5 -d 7 -p cbr -e 210 -c 0 -i 4 -a 0 -x {1.0 7.0 3 ------- null}
- -t 0.145954 -s 5 -d 7 -p cbr -e 210 -c 0 -i 4 -a 0 -x {1.0 7.0 3 ------- null}
h -t 0.145954 -s 5 -d 7 -p cbr -e 210 -c 0 -i 4 -a 0 -x {1.0 7.0 -1 ------- null}
r -t 0.146384 -s 5 -d 7 -p cbr -e 210 -c 0 -i 1 -a 0 -x {1.0 7.0 0 ------- null}
+ -t 0.14875 -s 1 -d 2 -p cbr -e 210 -c 0 -i 15 -a 0 -x {1.0 7.0 13 ------- null}
- -t 0.14875 -s 1 -d 2 -p cbr -e 210 -c 0 -i 15 -a 0 -x {1.0 7.0 13 ------- null}
h -t 0.14875 -s 1 -d 2 -p cbr -e 210 -c 0 -i 15 -a 0 -x {1.0 7.0 -1 ------- null}
r -t 0.14918 -s 1 -d 2 -p cbr -e 210 -c 0 -i 11 -a 0 -x {1.0 7.0 10 ------- null}
+ -t 0.14918 -s 2 -d 3 -p cbr -e 210 -c 0 -i 11 -a 0 -x {1.0 7.0 10 ------- null}
- -t 0.14918 -s 2 -d 3 -p cbr -e 210 -c 0 -i 11 -a 0 -x {1.0 7.0 10 ------- null}
h -t 0.14918 -s 2 -d 3 -p cbr -e 210 -c 0 -i 11 -a 0 -x {1.0 7.0 -1 ------- null}
r -t 0.149274 -s 2 -d 3 -p cbr -e 210 -c 0 -i 8 -a 0 -x {1.0 7.0 7 ------- null}
+ -t 0.149274 -s 3 -d 5 -p cbr -e 210 -c 0 -i 8 -a 0 -x {1.0 7.0 7 ------- null}
- -t 0.149274 -s 3 -d 5 -p cbr -e 210 -c 0 -i 8 -a 0 -x {1.0 7.0 7 ------- null}
h -t 0.149274 -s 3 -d 5 -p cbr -e 210 -c 0 -i 8 -a 0 -x {1.0 7.0 -1 ------- null}
r -t 0.149704 -s 3 -d 5 -p cbr -e 210 -c 0 -i 5 -a 0 -x {1.0 7.0 4 ------- null}
+ -t 0.149704 -s 5 -d 7 -p cbr -e 210 -c 0 -i 5 -a 0 -x {1.0 7.0 4 ------- null}
- -t 0.149704 -s 5 -d 7 -p cbr -e 210 -c 0 -i 5 -a 0 -x {1.0 7.0 4 ------- null}
h -t 0.149704 -s 5 -d 7 -p cbr -e 210 -c 0 -i 5 -a 0 -x {1.0 7.0 -1 ------- null}
r -t 0.150134 -s 5 -d 7 -p cbr -e 210 -c 0 -i 2 -a 0 -x {1.0 7.0 1 ------- null}
r -t 0.151536 -s 6 -d 4 -p ack -e 40 -c 0 -i 12 -a 0 -x {6.0 0.0 0 ------- null}
+ -t 0.151536 -s 4 -d 3 -p ack -e 40 -c 0 -i 12 -a 0 -x {6.0 0.0 0 ------- null}
- -t 0.151536 -s 4 -d 3 -p ack -e 40 -c 0 -i 12 -a 0 -x {6.0 0.0 0 ------- null}
h -t 0.151536 -s 4 -d 3 -p ack -e 40 -c 0 -i 12 -a 0 -x {6.0 0.0 -1 ------- null}
+ -t 0.1525 -s 1 -d 2 -p cbr -e 210 -c 0 -i 16 -a 0 -x {1.0 7.0 14 ------- null}
- -t 0.1525 -s 1 -d 2 -p cbr -e 210 -c 0 -i 16 -a 0 -x {1.0 7.0 14 ------- null}
h -t 0.1525 -s 1 -d 2 -p cbr -e 210 -c 0 -i 16 -a 0 -x {1.0 7.0 -1 ------- null}
r -t 0.15293 -s 1 -d 2 -p cbr -e 210 -c 0 -i 13 -a 0 -x {1.0 7.0 11 ------- null}
+ -t 0.15293 -s 2 -d 3 -p cbr -e 210 -c 0 -i 13 -a 0 -x {1.0 7.0 11 ------- null}
- -t 0.15293 -s 2 -d 3 -p cbr -e 210 -c 0 -i 13 -a 0 -x {1.0 7.0 11 ------- null}
h -t 0.15293 -s 2 -d 3 -p cbr -e 210 -c 0 -i 13 -a 0 -x {1.0 7.0 -1 ------- null}
r -t 0.153024 -s 2 -d 3 -p cbr -e 210 -c 0 -i 9 -a 0 -x {1.0 7.0 8 ------- null}
+ -t 0.153024 -s 3 -d 5 -p cbr -e 210 -c 0 -i 9 -a 0 -x {1.0 7.0 8 ------- null}
- -t 0.153024 -s 3 -d 5 -p cbr -e 210 -c 0 -i 9 -a 0 -x {1.0 7.0 8 ------- null}
h -t 0.153024 -s 3 -d 5 -p cbr -e 210 -c 0 -i 9 -a 0 -x {1.0 7.0 -1 ------- null}
r -t 0.153454 -s 3 -d 5 -p cbr -e 210 -c 0 -i 6 -a 0 -x {1.0 7.0 5 ------- null}
+ -t 0.153454 -s 5 -d 7 -p cbr -e 210 -c 0 -i 6 -a 0 -x {1.0 7.0 5 ------- null}
- -t 0.153454 -s 5 -d 7 -p cbr -e 210 -c 0 -i 6 -a 0 -x {1.0 7.0 5 ------- null}
h -t 0.153454 -s 5 -d 7 -p cbr -e 210 -c 0 -i 6 -a 0 -x {1.0 7.0 -1 ------- null}
r -t 0.153884 -s 5 -d 7 -p cbr -e 210 -c 0 -i 3 -a 0 -x {1.0 7.0 2 ------- null}
+ -t 0.15625 -s 1 -d 2 -p cbr -e 210 -c 0 -i 17 -a 0 -x {1.0 7.0 15 ------- null}
- -t 0.15625 -s 1 -d 2 -p cbr -e 210 -c 0 -i 17 -a 0 -x {1.0 7.0 15 ------- null}
h -t 0.15625 -s 1 -d 2 -p cbr -e 210 -c 0 -i 17 -a 0 -x {1.0 7.0 -1 ------- null}
r -t 0.15668 -s 1 -d 2 -p cbr -e 210 -c 0 -i 14 -a 0 -x {1.0 7.0 12 ------- null}
+ -t 0.15668 -s 2 -d 3 -p cbr -e 210 -c 0 -i 14 -a 0 -x {1.0 7.0 12 ------- null}
- -t 0.15668 -s 2 -d 3 -p cbr -e 210 -c 0 -i 14 -a 0 -x {1.0 7.0 12 ------- null}
h -t 0.15668 -s 2 -d 3 -p cbr -e 210 -c 0 -i 14 -a 0 -x {1.0 7.0 -1 ------- null}
r -t 0.156774 -s 2 -d 3 -p cbr -e 210 -c 0 -i 10 -a 0 -x {1.0 7.0 9 ------- null}
+ -t 0.156774 -s 3 -d 5 -p cbr -e 210 -c 0 -i 10 -a 0 -x {1.0 7.0 9 ------- null}
- -t 0.156774 -s 3 -d 5 -p cbr -e 210 -c 0 -i 10 -a 0 -x {1.0 7.0 9 ------- null}
h -t 0.156774 -s 3 -d 5 -p cbr -e 210 -c 0 -i 10 -a 0 -x {1.0 7.0 -1 ------- null}
r -t 0.157204 -s 3 -d 5 -p cbr -e 210 -c 0 -i 7 -a 0 -x {1.0 7.0 6 ------- null}
+ -t 0.157204 -s 5 -d 7 -p cbr -e 210 -c 0 -i 7 -a 0 -x {1.0 7.0 6 ------- null}
- -t 0.157204 -s 5 -d 7 -p cbr -e 210 -c 0 -i 7 -a 0 -x {1.0 7.0 6 ------- null}
h -t 0.157204 -s 5 -d 7 -p cbr -e 210 -c 0 -i 7 -a 0 -x {1.0 7.0 -1 ------- null}
r -t 0.157634 -s 5 -d 7 -p cbr -e 210 -c 0 -i 4 -a 0 -x {1.0 7.0 3 ------- null}
+ -t 0.16 -s 1 -d 2 -p cbr -e 210 -c 0 -i 18 -a 0 -x {1.0 7.0 16 ------- null}
- -t 0.16 -s 1 -d 2 -p cbr -e 210 -c 0 -i 18 -a 0 -x {1.0 7.0 16 ------- null}
h -t 0.16 -s 1 -d 2 -p cbr -e 210 -c 0 -i 18 -a 0 -x {1.0 7.0 -1 ------- null}
r -t 0.16043 -s 1 -d 2 -p cbr -e 210 -c 0 -i 15 -a 0 -x {1.0 7.0 13 ------- null}
+ -t 0.16043 -s 2 -d 3 -p cbr -e 210 -c 0 -i 15 -a 0 -x {1.0 7.0 13 ------- null}
- -t 0.16043 -s 2 -d 3 -p cbr -e 210 -c 0 -i 15 -a 0 -x {1.0 7.0 13 ------- null}
h -t 0.16043 -s 2 -d 3 -p cbr -e 210 -c 0 -i 15 -a 0 -x {1.0 7.0 -1 ------- null}
r -t 0.160524 -s 2 -d 3 -p cbr -e 210 -c 0 -i 11 -a 0 -x {1.0 7.0 10 ------- null}
+ -t 0.160524 -s 3 -d 5 -p cbr -e 210 -c 0 -i 11 -a 0 -x {1.0 7.0 10 ------- null}
- -t 0.160524 -s 3 -d 5 -p cbr -e 210 -c 0 -i 11 -a 0 -x {1.0 7.0 10 ------- null}
h -t 0.160524 -s 3 -d 5 -p cbr -e 210 -c 0 -i 11 -a 0 -x {1.0 7.0 -1 ------- null}
r -t 0.160954 -s 3 -d 5 -p cbr -e 210 -c 0 -i 8 -a 0 -x {1.0 7.0 7 ------- null}
+ -t 0.160954 -s 5 -d 7 -p cbr -e 210 -c 0 -i 8 -a 0 -x {1.0 7.0 7 ------- null}
- -t 0.160954 -s 5 -d 7 -p cbr -e 210 -c 0 -i 8 -a 0 -x {1.0 7.0 7 ------- null}
h -t 0.160954 -s 5 -d 7 -p cbr -e 210 -c 0 -i 8 -a 0 -x {1.0 7.0 -1 ------- null}
r -t 0.161384 -s 5 -d 7 -p cbr -e 210 -c 0 -i 5 -a 0 -x {1.0 7.0 4 ------- null}
r -t 0.161856 -s 4 -d 3 -p ack -e 40 -c 0 -i 12 -a 0 -x {6.0 0.0 0 ------- null}
+ -t 0.161856 -s 3 -d 2 -p ack -e 40 -c 0 -i 12 -a 0 -x {6.0 0.0 0 ------- null}
- -t 0.161856 -s 3 -d 2 -p ack -e 40 -c 0 -i 12 -a 0 -x {6.0 0.0 0 ------- null}
h -t 0.161856 -s 3 -d 2 -p ack -e 40 -c 0 -i 12 -a 0 -x {6.0 0.0 -1 ------- null}
+ -t 0.16375 -s 1 -d 2 -p cbr -e 210 -c 0 -i 19 -a 0 -x {1.0 7.0 17 ------- null}
- -t 0.16375 -s 1 -d 2 -p cbr -e 210 -c 0 -i 19 -a 0 -x {1.0 7.0 17 ------- null}
h -t 0.16375 -s 1 -d 2 -p cbr -e 210 -c 0 -i 19 -a 0 -x {1.0 7.0 -1 ------- null}
r -t 0.16418 -s 1 -d 2 -p cbr -e 210 -c 0 -i 16 -a 0 -x {1.0 7.0 14 ------- null}
+ -t 0.16418 -s 2 -d 3 -p cbr -e 210 -c 0 -i 16 -a 0 -x {1.0 7.0 14 ------- null}
- -t 0.16418 -s 2 -d 3 -p cbr -e 210 -c 0 -i 16 -a 0 -x {1.0 7.0 14 ------- null}
h -t 0.16418 -s 2 -d 3 -p cbr -e 210 -c 0 -i 16 -a 0 -x {1.0 7.0 -1 ------- null}
r -t 0.164274 -s 2 -d 3 -p cbr -e 210 -c 0 -i 13 -a 0 -x {1.0 7.0 11 ------- null}
+ -t 0.164274 -s 3 -d 5 -p cbr -e 210 -c 0 -i 13 -a 0 -x {1.0 7.0 11 ------- null}
- -t 0.164274 -s 3 -d 5 -p cbr -e 210 -c 0 -i 13 -a 0 -x {1.0 7.0 11 ------- null}
h -t 0.164274 -s 3 -d 5 -p cbr -e 210 -c 0 -i 13 -a 0 -x {1.0 7.0 -1 ------- null}
r -t 0.164704 -s 3 -d 5 -p cbr -e 210 -c 0 -i 9 -a 0 -x {1.0 7.0 8 ------- null}
+ -t 0.164704 -s 5 -d 7 -p cbr -e 210 -c 0 -i 9 -a 0 -x {1.0 7.0 8 ------- null}
- -t 0.164704 -s 5 -d 7 -p cbr -e 210 -c 0 -i 9 -a 0 -x {1.0 7.0 8 ------- null}
h -t 0.164704 -s 5 -d 7 -p cbr -e 210 -c 0 -i 9 -a 0 -x {1.0 7.0 -1 ------- null}
r -t 0.165134 -s 5 -d 7 -p cbr -e 210 -c 0 -i 6 -a 0 -x {1.0 7.0 5 ------- null}
+ -t 0.1675 -s 1 -d 2 -p cbr -e 210 -c 0 -i 20 -a 0 -x {1.0 7.0 18 ------- null}
- -t 0.1675 -s 1 -d 2 -p cbr -e 210 -c 0 -i 20 -a 0 -x {1.0 7.0 18 ------- null}
h -t 0.1675 -s 1 -d 2 -p cbr -e 210 -c 0 -i 20 -a 0 -x {1.0 7.0 -1 ------- null}
r -t 0.16793 -s 1 -d 2 -p cbr -e 210 -c 0 -i 17 -a 0 -x {1.0 7.0 15 ------- null}
+ -t 0.16793 -s 2 -d 3 -p cbr -e 210 -c 0 -i 17 -a 0 -x {1.0 7.0 15 ------- null}
- -t 0.16793 -s 2 -d 3 -p cbr -e 210 -c 0 -i 17 -a 0 -x {1.0 7.0 15 ------- null}
h -t 0.16793 -s 2 -d 3 -p cbr -e 210 -c 0 -i 17 -a 0 -x {1.0 7.0 -1 ------- null}
r -t 0.168024 -s 2 -d 3 -p cbr -e 210 -c 0 -i 14 -a 0 -x {1.0 7.0 12 ------- null}
+ -t 0.168024 -s 3 -d 5 -p cbr -e 210 -c 0 -i 14 -a 0 -x {1.0 7.0 12 ------- null}
- -t 0.168024 -s 3 -d 5 -p cbr -e 210 -c 0 -i 14 -a 0 -x {1.0 7.0 12 ------- null}
h -t 0.168024 -s 3 -d 5 -p cbr -e 210 -c 0 -i 14 -a 0 -x {1.0 7.0 -1 ------- null}
r -t 0.168454 -s 3 -d 5 -p cbr -e 210 -c 0 -i 10 -a 0 -x {1.0 7.0 9 ------- null}
+ -t 0.168454 -s 5 -d 7 -p cbr -e 210 -c 0 -i 10 -a 0 -x {1.0 7.0 9 ------- null}
- -t 0.168454 -s 5 -d 7 -p cbr -e 210 -c 0 -i 10 -a 0 -x {1.0 7.0 9 ------- null}
h -t 0.168454 -s 5 -d 7 -p cbr -e 210 -c 0 -i 10 -a 0 -x {1.0 7.0 -1 ------- null}
r -t 0.168884 -s 5 -d 7 -p cbr -e 210 -c 0 -i 7 -a 0 -x {1.0 7.0 6 ------- null}
+ -t 0.17125 -s 1 -d 2 -p cbr -e 210 -c 0 -i 21 -a 0 -x {1.0 7.0 19 ------- null}
- -t 0.17125 -s 1 -d 2 -p cbr -e 210 -c 0 -i 21 -a 0 -x {1.0 7.0 19 ------- null}
h -t 0.17125 -s 1 -d 2 -p cbr -e 210 -c 0 -i 21 -a 0 -x {1.0 7.0 -1 ------- null}
r -t 0.17168 -s 1 -d 2 -p cbr -e 210 -c 0 -i 18 -a 0 -x {1.0 7.0 16 ------- null}
+ -t 0.17168 -s 2 -d 3 -p cbr -e 210 -c 0 -i 18 -a 0 -x {1.0 7.0 16 ------- null}
- -t 0.17168 -s 2 -d 3 -p cbr -e 210 -c 0 -i 18 -a 0 -x {1.0 7.0 16 ------- null}
h -t 0.17168 -s 2 -d 3 -p cbr -e 210 -c 0 -i 18 -a 0 -x {1.0 7.0 -1 ------- null}
r -t 0.171774 -s 2 -d 3 -p cbr -e 210 -c 0 -i 15 -a 0 -x {1.0 7.0 13 ------- null}
+ -t 0.171774 -s 3 -d 5 -p cbr -e 210 -c 0 -i 15 -a 0 -x {1.0 7.0 13 ------- null}
- -t 0.171774 -s 3 -d 5 -p cbr -e 210 -c 0 -i 15 -a 0 -x {1.0 7.0 13 ------- null}
h -t 0.171774 -s 3 -d 5 -p cbr -e 210 -c 0 -i 15 -a 0 -x {1.0 7.0 -1 ------- null}
r -t 0.172112 -s 3 -d 2 -p ack -e 40 -c 0 -i 12 -a 0 -x {6.0 0.0 0 ------- null}
+ -t 0.172112 -s 2 -d 0 -p ack -e 40 -c 0 -i 12 -a 0 -x {6.0 0.0 0 ------- null}
- -t 0.172112 -s 2 -d 0 -p ack -e 40 -c 0 -i 12 -a 0 -x {6.0 0.0 0 ------- null}
h -t 0.172112 -s 2 -d 0 -p ack -e 40 -c 0 -i 12 -a 0 -x {6.0 0.0 -1 ------- null}
r -t 0.172204 -s 3 -d 5 -p cbr -e 210 -c 0 -i 11 -a 0 -x {1.0 7.0 10 ------- null}
+ -t 0.172204 -s 5 -d 7 -p cbr -e 210 -c 0 -i 11 -a 0 -x {1.0 7.0 10 ------- null}
- -t 0.172204 -s 5 -d 7 -p cbr -e 210 -c 0 -i 11 -a 0 -x {1.0 7.0 10 ------- null}
h -t 0.172204 -s 5 -d 7 -p cbr -e 210 -c 0 -i 11 -a 0 -x {1.0 7.0 -1 ------- null}
r -t 0.172634 -s 5 -d 7 -p cbr -e 210 -c 0 -i 8 -a 0 -x {1.0 7.0 7 ------- null}
+ -t 0.175 -s 1 -d 2 -p cbr -e 210 -c 0 -i 22 -a 0 -x {1.0 7.0 20 ------- null}
- -t 0.175 -s 1 -d 2 -p cbr -e 210 -c 0 -i 22 -a 0 -x {1.0 7.0 20 ------- null}
h -t 0.175 -s 1 -d 2 -p cbr -e 210 -c 0 -i 22 -a 0 -x {1.0 7.0 -1 ------- null}
r -t 0.17543 -s 1 -d 2 -p cbr -e 210 -c 0 -i 19 -a 0 -x {1.0 7.0 17 ------- null}
+ -t 0.17543 -s 2 -d 3 -p cbr -e 210 -c 0 -i 19 -a 0 -x {1.0 7.0 17 ------- null}
- -t 0.17543 -s 2 -d 3 -p cbr -e 210 -c 0 -i 19 -a 0 -x {1.0 7.0 17 ------- null}
h -t 0.17543 -s 2 -d 3 -p cbr -e 210 -c 0 -i 19 -a 0 -x {1.0 7.0 -1 ------- null}
r -t 0.175524 -s 2 -d 3 -p cbr -e 210 -c 0 -i 16 -a 0 -x {1.0 7.0 14 ------- null}
+ -t 0.175524 -s 3 -d 5 -p cbr -e 210 -c 0 -i 16 -a 0 -x {1.0 7.0 14 ------- null}
- -t 0.175524 -s 3 -d 5 -p cbr -e 210 -c 0 -i 16 -a 0 -x {1.0 7.0 14 ------- null}
h -t 0.175524 -s 3 -d 5 -p cbr -e 210 -c 0 -i 16 -a 0 -x {1.0 7.0 -1 ------- null}
r -t 0.175954 -s 3 -d 5 -p cbr -e 210 -c 0 -i 13 -a 0 -x {1.0 7.0 11 ------- null}
+ -t 0.175954 -s 5 -d 7 -p cbr -e 210 -c 0 -i 13 -a 0 -x {1.0 7.0 11 ------- null}
- -t 0.175954 -s 5 -d 7 -p cbr -e 210 -c 0 -i 13 -a 0 -x {1.0 7.0 11 ------- null}
h -t 0.175954 -s 5 -d 7 -p cbr -e 210 -c 0 -i 13 -a 0 -x {1.0 7.0 -1 ------- null}
r -t 0.176384 -s 5 -d 7 -p cbr -e 210 -c 0 -i 9 -a 0 -x {1.0 7.0 8 ------- null}
+ -t 0.17875 -s 1 -d 2 -p cbr -e 210 -c 0 -i 23 -a 0 -x {1.0 7.0 21 ------- null}
- -t 0.17875 -s 1 -d 2 -p cbr -e 210 -c 0 -i 23 -a 0 -x {1.0 7.0 21 ------- null}
h -t 0.17875 -s 1 -d 2 -p cbr -e 210 -c 0 -i 23 -a 0 -x {1.0 7.0 -1 ------- null}
r -t 0.17918 -s 1 -d 2 -p cbr -e 210 -c 0 -i 20 -a 0 -x {1.0 7.0 18 ------- null}
+ -t 0.17918 -s 2 -d 3 -p cbr -e 210 -c 0 -i 20 -a 0 -x {1.0 7.0 18 ------- null}
- -t 0.17918 -s 2 -d 3 -p cbr -e 210 -c 0 -i 20 -a 0 -x {1.0 7.0 18 ------- null}
h -t 0.17918 -s 2 -d 3 -p cbr -e 210 -c 0 -i 20 -a 0 -x {1.0 7.0 -1 ------- null}
r -t 0.179274 -s 2 -d 3 -p cbr -e 210 -c 0 -i 17 -a 0 -x {1.0 7.0 15 ------- null}
+ -t 0.179274 -s 3 -d 5 -p cbr -e 210 -c 0 -i 17 -a 0 -x {1.0 7.0 15 ------- null}
- -t 0.179274 -s 3 -d 5 -p cbr -e 210 -c 0 -i 17 -a 0 -x {1.0 7.0 15 ------- null}
h -t 0.179274 -s 3 -d 5 -p cbr -e 210 -c 0 -i 17 -a 0 -x {1.0 7.0 -1 ------- null}
r -t 0.179704 -s 3 -d 5 -p cbr -e 210 -c 0 -i 14 -a 0 -x {1.0 7.0 12 ------- null}
+ -t 0.179704 -s 5 -d 7 -p cbr -e 210 -c 0 -i 14 -a 0 -x {1.0 7.0 12 ------- null}
- -t 0.179704 -s 5 -d 7 -p cbr -e 210 -c 0 -i 14 -a 0 -x {1.0 7.0 12 ------- null}
h -t 0.179704 -s 5 -d 7 -p cbr -e 210 -c 0 -i 14 -a 0 -x {1.0 7.0 -1 ------- null}
r -t 0.180134 -s 5 -d 7 -p cbr -e 210 -c 0 -i 10 -a 0 -x {1.0 7.0 9 ------- null}
r -t 0.182432 -s 2 -d 0 -p ack -e 40 -c 0 -i 12 -a 0 -x {6.0 0.0 0 ------- null}
+ -t 0.182432 -s 0 -d 2 -p tcp -e 1040 -c 0 -i 24 -a 0 -x {0.0 6.0 1 ------- null}
- -t 0.182432 -s 0 -d 2 -p tcp -e 1040 -c 0 -i 24 -a 0 -x {0.0 6.0 1 ------- null}
h -t 0.182432 -s 0 -d 2 -p tcp -e 1040 -c 0 -i 24 -a 0 -x {0.0 6.0 -1 ------- null}
+ -t 0.182432 -s 0 -d 2 -p tcp -e 1040 -c 0 -i 25 -a 0 -x {0.0 6.0 2 ------- null}
+ -t 0.1825 -s 1 -d 2 -p cbr -e 210 -c 0 -i 26 -a 0 -x {1.0 7.0 22 ------- null}
- -t 0.1825 -s 1 -d 2 -p cbr -e 210 -c 0 -i 26 -a 0 -x {1.0 7.0 22 ------- null}
h -t 0.1825 -s 1 -d 2 -p cbr -e 210 -c 0 -i 26 -a 0 -x {1.0 7.0 -1 ------- null}
r -t 0.18293 -s 1 -d 2 -p cbr -e 210 -c 0 -i 21 -a 0 -x {1.0 7.0 19 ------- null}
+ -t 0.18293 -s 2 -d 3 -p cbr -e 210 -c 0 -i 21 -a 0 -x {1.0 7.0 19 ------- null}
- -t 0.18293 -s 2 -d 3 -p cbr -e 210 -c 0 -i 21 -a 0 -x {1.0 7.0 19 ------- null}
h -t 0.18293 -s 2 -d 3 -p cbr -e 210 -c 0 -i 21 -a 0 -x {1.0 7.0 -1 ------- null}
r -t 0.183024 -s 2 -d 3 -p cbr -e 210 -c 0 -i 18 -a 0 -x {1.0 7.0 16 ------- null}
+ -t 0.183024 -s 3 -d 5 -p cbr -e 210 -c 0 -i 18 -a 0 -x {1.0 7.0 16 ------- null}
- -t 0.183024 -s 3 -d 5 -p cbr -e 210 -c 0 -i 18 -a 0 -x {1.0 7.0 16 ------- null}
h -t 0.183024 -s 3 -d 5 -p cbr -e 210 -c 0 -i 18 -a 0 -x {1.0 7.0 -1 ------- null}
r -t 0.183454 -s 3 -d 5 -p cbr -e 210 -c 0 -i 15 -a 0 -x {1.0 7.0 13 ------- null}
+ -t 0.183454 -s 5 -d 7 -p cbr -e 210 -c 0 -i 15 -a 0 -x {1.0 7.0 13 ------- null}
- -t 0.183454 -s 5 -d 7 -p cbr -e 210 -c 0 -i 15 -a 0 -x {1.0 7.0 13 ------- null}
h -t 0.183454 -s 5 -d 7 -p cbr -e 210 -c 0 -i 15 -a 0 -x {1.0 7.0 -1 ------- null}
r -t 0.183884 -s 5 -d 7 -p cbr -e 210 -c 0 -i 11 -a 0 -x {1.0 7.0 10 ------- null}
+ -t 0.18625 -s 1 -d 2 -p cbr -e 210 -c 0 -i 27 -a 0 -x {1.0 7.0 23 ------- null}
- -t 0.18625 -s 1 -d 2 -p cbr -e 210 -c 0 -i 27 -a 0 -x {1.0 7.0 23 ------- null}
h -t 0.18625 -s 1 -d 2 -p cbr -e 210 -c 0 -i 27 -a 0 -x {1.0 7.0 -1 ------- null}
r -t 0.18668 -s 1 -d 2 -p cbr -e 210 -c 0 -i 22 -a 0 -x {1.0 7.0 20 ------- null}
+ -t 0.18668 -s 2 -d 3 -p cbr -e 210 -c 0 -i 22 -a 0 -x {1.0 7.0 20 ------- null}
- -t 0.18668 -s 2 -d 3 -p cbr -e 210 -c 0 -i 22 -a 0 -x {1.0 7.0 20 ------- null}
h -t 0.18668 -s 2 -d 3 -p cbr -e 210 -c 0 -i 22 -a 0 -x {1.0 7.0 -1 ------- null}
r -t 0.186774 -s 2 -d 3 -p cbr -e 210 -c 0 -i 19 -a 0 -x {1.0 7.0 17 ------- null}
+ -t 0.186774 -s 3 -d 5 -p cbr -e 210 -c 0 -i 19 -a 0 -x {1.0 7.0 17 ------- null}
- -t 0.186774 -s 3 -d 5 -p cbr -e 210 -c 0 -i 19 -a 0 -x {1.0 7.0 17 ------- null}
h -t 0.186774 -s 3 -d 5 -p cbr -e 210 -c 0 -i 19 -a 0 -x {1.0 7.0 -1 ------- null}
r -t 0.187204 -s 3 -d 5 -p cbr -e 210 -c 0 -i 16 -a 0 -x {1.0 7.0 14 ------- null}
+ -t 0.187204 -s 5 -d 7 -p cbr -e 210 -c 0 -i 16 -a 0 -x {1.0 7.0 14 ------- null}
- -t 0.187204 -s 5 -d 7 -p cbr -e 210 -c 0 -i 16 -a 0 -x {1.0 7.0 14 ------- null}
h -t 0.187204 -s 5 -d 7 -p cbr -e 210 -c 0 -i 16 -a 0 -x {1.0 7.0 -1 ------- null}
r -t 0.187634 -s 5 -d 7 -p cbr -e 210 -c 0 -i 13 -a 0 -x {1.0 7.0 11 ------- null}
+ -t 0.19 -s 1 -d 2 -p cbr -e 210 -c 0 -i 28 -a 0 -x {1.0 7.0 24 ------- null}
- -t 0.19 -s 1 -d 2 -p cbr -e 210 -c 0 -i 28 -a 0 -x {1.0 7.0 24 ------- null}
h -t 0.19 -s 1 -d 2 -p cbr -e 210 -c 0 -i 28 -a 0 -x {1.0 7.0 -1 ------- null}
r -t 0.19043 -s 1 -d 2 -p cbr -e 210 -c 0 -i 23 -a 0 -x {1.0 7.0 21 ------- null}
+ -t 0.19043 -s 2 -d 3 -p cbr -e 210 -c 0 -i 23 -a 0 -x {1.0 7.0 21 ------- null}
- -t 0.19043 -s 2 -d 3 -p cbr -e 210 -c 0 -i 23 -a 0 -x {1.0 7.0 21 ------- null}
h -t 0.19043 -s 2 -d 3 -p cbr -e 210 -c 0 -i 23 -a 0 -x {1.0 7.0 -1 ------- null}
r -t 0.190524 -s 2 -d 3 -p cbr -e 210 -c 0 -i 20 -a 0 -x {1.0 7.0 18 ------- null}
+ -t 0.190524 -s 3 -d 5 -p cbr -e 210 -c 0 -i 20 -a 0 -x {1.0 7.0 18 ------- null}
- -t 0.190524 -s 3 -d 5 -p cbr -e 210 -c 0 -i 20 -a 0 -x {1.0 7.0 18 ------- null}
h -t 0.190524 -s 3 -d 5 -p cbr -e 210 -c 0 -i 20 -a 0 -x {1.0 7.0 -1 ------- null}
- -t 0.190752 -s 0 -d 2 -p tcp -e 1040 -c 0 -i 25 -a 0 -x {0.0 6.0 2 ------- null}
h -t 0.190752 -s 0 -d 2 -p tcp -e 1040 -c 0 -i 25 -a 0 -x {0.0 6.0 -1 ------- null}
r -t 0.190954 -s 3 -d 5 -p cbr -e 210 -c 0 -i 17 -a 0 -x {1.0 7.0 15 ------- null}
+ -t 0.190954 -s 5 -d 7 -p cbr -e 210 -c 0 -i 17 -a 0 -x {1.0 7.0 15 ------- null}
- -t 0.190954 -s 5 -d 7 -p cbr -e 210 -c 0 -i 17 -a 0 -x {1.0 7.0 15 ------- null}
h -t 0.190954 -s 5 -d 7 -p cbr -e 210 -c 0 -i 17 -a 0 -x {1.0 7.0 -1 ------- null}
r -t 0.191384 -s 5 -d 7 -p cbr -e 210 -c 0 -i 14 -a 0 -x {1.0 7.0 12 ------- null}
+ -t 0.19375 -s 1 -d 2 -p cbr -e 210 -c 0 -i 29 -a 0 -x {1.0 7.0 25 ------- null}
- -t 0.19375 -s 1 -d 2 -p cbr -e 210 -c 0 -i 29 -a 0 -x {1.0 7.0 25 ------- null}
h -t 0.19375 -s 1 -d 2 -p cbr -e 210 -c 0 -i 29 -a 0 -x {1.0 7.0 -1 ------- null}