+ 0.1 0 2 tcp 40 ------- 0 0.0 6.0 0 0
- 0.1 0 2 tcp 40 ------- 0 0.0 6.0 0 0
+ 0.1 1 2 cbr 210 ------- 0 1.0 7.0 0 1
- 0.1 1 2 cbr 210 ------- 0 1.0 7.0 0 1
+ 0.10375 1 2 cbr 210 ------- 0 1.0 7.0 1 2
- 0.10375 1 2 cbr 210 ------- 0 1.0 7.0 1 2
+ 0.1075 1 2 cbr 210 ------- 0 1.0 7.0 2 3
- 0.1075 1 2 cbr 210 ------- 0 1.0 7.0 2 3
r 0.11032 0 2 tcp 40 ------- 0 0.0 6.0 0 0
+ 0.11032 2 3 tcp 40 ------- 0 0.0 6.0 0 0
- 0.11032 2 3 tcp 40 ------- 0 0.0 6.0 0 0
+ 0.11125 1 2 cbr 210 ------- 0 1.0 7.0 3 4
- 0.11125 1 2 cbr 210 ------- 0 1.0 7.0 3 4
r 0.11168 1 2 cbr 210 ------- 0 1.0 7.0 0 1
+ 0.11168 2 3 cbr 210 ------- 0 1.0 7.0 0 1
- 0.11168 2 3 cbr 210 ------- 0 1.0 7.0 0 1
+ 0.115 1 2 cbr 210 ------- 0 1.0 7.0 4 5
- 0.115 1 2 cbr 210 ------- 0 1.0 7.0 4 5
r 0.11543 1 2 cbr 210 ------- 0 1.0 7.0 1 2
+ 0.11543 2 3 cbr 210 ------- 0 1.0 7.0 1 2
- 0.11543 2 3 cbr 210 ------- 0 1.0 7.0 1 2
+ 0.11875 1 2 cbr 210 ------- 0 1.0 7.0 5 6
- 0.11875 1 2 cbr 210 ------- 0 1.0 7.0 5 6
r 0.11918 1 2 cbr 210 ------- 0 1.0 7.0 2 3
+ 0.11918 2 3 cbr 210 ------- 0 1.0 7.0 2 3
- 0.11918 2 3 cbr 210 ------- 0 1.0 7.0 2 3
r 0.120462 2 3 tcp 40 ------- 0 0.0 6.0 0 0
+ 0.120462 3 4 tcp 40 ------- 0 0.0 6.0 0 0
- 0.120462 3 4 tcp 40 ------- 0 0.0 6.0 0 0
r 0.122427 2 3 cbr 210 ------- 0 1.0 7.0 0 1
+ 0.122427 3 5 cbr 210 ------- 0 1.0 7.0 0 1
- 0.122427 3 5 cbr 210 ------- 0 1.0 7.0 0 1
+ 0.1225 1 2 cbr 210 ------- 0 1.0 7.0 6 7
- 0.1225 1 2 cbr 210 ------- 0 1.0 7.0 6 7
r 0.12293 1 2 cbr 210 ------- 0 1.0 7.0 3 4
+ 0.12293 2 3 cbr 210 ------- 0 1.0 7.0 3 4
- 0.12293 2 3 cbr 210 ------- 0 1.0 7.0 3 4
r 0.126177 2 3 cbr 210 ------- 0 1.0 7.0 1 2
+ 0.126177 3 5 cbr 210 ------- 0 1.0 7.0 1 2
- 0.126177 3 5 cbr 210 ------- 0 1.0 7.0 1 2
+ 0.12625 1 2 cbr 210 ------- 0 1.0 7.0 7 8
- 0.12625 1 2 cbr 210 ------- 0 1.0 7.0 7 8
r 0.12668 1 2 cbr 210 ------- 0 1.0 7.0 4 5
+ 0.12668 2 3 cbr 210 ------- 0 1.0 7.0 4 5
- 0.12668 2 3 cbr 210 ------- 0 1.0 7.0 4 5
r 0.129927 2 3 cbr 210 ------- 0 1.0 7.0 2 3
+ 0.129927 3 5 cbr 210 ------- 0 1.0 7.0 2 3
- 0.129927 3 5 cbr 210 ------- 0 1.0 7.0 2 3
+ 0.13 1 2 cbr 210 ------- 0 1.0 7.0 8 9
- 0.13 1 2 cbr 210 ------- 0 1.0 7.0 8 9
r 0.13043 1 2 cbr 210 ------- 0 1.0 7.0 5 6
+ 0.13043 2 3 cbr 210 ------- 0 1.0 7.0 5 6
- 0.13043 2 3 cbr 210 ------- 0 1.0 7.0 5 6
r 0.130782 3 4 tcp 40 ------- 0 0.0 6.0 0 0
+ 0.130782 4 6 tcp 40 ------- 0 0.0 6.0 0 0
- 0.130782 4 6 tcp 40 ------- 0 0.0 6.0 0 0
r 0.133677 2 3 cbr 210 ------- 0 1.0 7.0 3 4
+ 0.133677 3 5 cbr 210 ------- 0 1.0 7.0 3 4
- 0.133677 3 5 cbr 210 ------- 0 1.0 7.0 3 4
+ 0.13375 1 2 cbr 210 ------- 0 1.0 7.0 9 10
- 0.13375 1 2 cbr 210 ------- 0 1.0 7.0 9 10
r 0.134107 3 5 cbr 210 ------- 0 1.0 7.0 0 1
+ 0.134107 5 7 cbr 210 ------- 0 1.0 7.0 0 1
- 0.134107 5 7 cbr 210 ------- 0 1.0 7.0 0 1
r 0.13418 1 2 cbr 210 ------- 0 1.0 7.0 6 7
+ 0.13418 2 3 cbr 210 ------- 0 1.0 7.0 6 7
- 0.13418 2 3 cbr 210 ------- 0 1.0 7.0 6 7
r 0.137427 2 3 cbr 210 ------- 0 1.0 7.0 4 5
+ 0.137427 3 5 cbr 210 ------- 0 1.0 7.0 4 5
- 0.137427 3 5 cbr 210 ------- 0 1.0 7.0 4 5
+ 0.1375 1 2 cbr 210 ------- 0 1.0 7.0 10 11
- 0.1375 1 2 cbr 210 ------- 0 1.0 7.0 10 11
r 0.137857 3 5 cbr 210 ------- 0 1.0 7.0 1 2
+ 0.137857 5 7 cbr 210 ------- 0 1.0 7.0 1 2
- 0.137857 5 7 cbr 210 ------- 0 1.0 7.0 1 2
r 0.13793 1 2 cbr 210 ------- 0 1.0 7.0 7 8
+ 0.13793 2 3 cbr 210 ------- 0 1.0 7.0 7 8
- 0.13793 2 3 cbr 210 ------- 0 1.0 7.0 7 8
r 0.141102 4 6 tcp 40 ------- 0 0.0 6.0 0 0
+ 0.141102 6 4 ack 40 ------- 0 6.0 0.0 0 12
- 0.141102 6 4 ack 40 ------- 0 6.0 0.0 0 12
r 0.141177 2 3 cbr 210 ------- 0 1.0 7.0 5 6
+ 0.141177 3 5 cbr 210 ------- 0 1.0 7.0 5 6
- 0.141177 3 5 cbr 210 ------- 0 1.0 7.0 5 6
+ 0.14125 1 2 cbr 210 ------- 0 1.0 7.0 11 13
- 0.14125 1 2 cbr 210 ------- 0 1.0 7.0 11 13
r 0.141607 3 5 cbr 210 ------- 0 1.0 7.0 2 3
+ 0.141607 5 7 cbr 210 ------- 0 1.0 7.0 2 3
- 0.141607 5 7 cbr 210 ------- 0 1.0 7.0 2 3
r 0.14168 1 2 cbr 210 ------- 0 1.0 7.0 8 9
+ 0.14168 2 3 cbr 210 ------- 0 1.0 7.0 8 9
- 0.14168 2 3 cbr 210 ------- 0 1.0 7.0 8 9
r 0.144927 2 3 cbr 210 ------- 0 1.0 7.0 6 7
+ 0.144927 3 5 cbr 210 ------- 0 1.0 7.0 6 7
- 0.144927 3 5 cbr 210 ------- 0 1.0 7.0 6 7
+ 0.145 1 2 cbr 210 ------- 0 1.0 7.0 12 14
- 0.145 1 2 cbr 210 ------- 0 1.0 7.0 12 14
r 0.145357 3 5 cbr 210 ------- 0 1.0 7.0 3 4
+ 0.145357 5 7 cbr 210 ------- 0 1.0 7.0 3 4
- 0.145357 5 7 cbr 210 ------- 0 1.0 7.0 3 4
r 0.14543 1 2 cbr 210 ------- 0 1.0 7.0 9 10
+ 0.14543 2 3 cbr 210 ------- 0 1.0 7.0 9 10
- 0.14543 2 3 cbr 210 ------- 0 1.0 7.0 9 10
r 0.145787 5 7 cbr 210 ------- 0 1.0 7.0 0 1
r 0.148677 2 3 cbr 210 ------- 0 1.0 7.0 7 8
+ 0.148677 3 5 cbr 210 ------- 0 1.0 7.0 7 8
- 0.148677 3 5 cbr 210 ------- 0 1.0 7.0 7 8
+ 0.14875 1 2 cbr 210 ------- 0 1.0 7.0 13 15
- 0.14875 1 2 cbr 210 ------- 0 1.0 7.0 13 15
r 0.149107 3 5 cbr 210 ------- 0 1.0 7.0 4 5
+ 0.149107 5 7 cbr 210 ------- 0 1.0 7.0 4 5
- 0.149107 5 7 cbr 210 ------- 0 1.0 7.0 4 5
r 0.14918 1 2 cbr 210 ------- 0 1.0 7.0 10 11
+ 0.14918 2 3 cbr 210 ------- 0 1.0 7.0 10 11
- 0.14918 2 3 cbr 210 ------- 0 1.0 7.0 10 11
r 0.149537 5 7 cbr 210 ------- 0 1.0 7.0 1 2
r 0.151422 6 4 ack 40 ------- 0 6.0 0.0 0 12
+ 0.151422 4 3 ack 40 ------- 0 6.0 0.0 0 12
- 0.151422 4 3 ack 40 ------- 0 6.0 0.0 0 12
r 0.152427 2 3 cbr 210 ------- 0 1.0 7.0 8 9
+ 0.152427 3 5 cbr 210 ------- 0 1.0 7.0 8 9
- 0.152427 3 5 cbr 210 ------- 0 1.0 7.0 8 9
+ 0.1525 1 2 cbr 210 ------- 0 1.0 7.0 14 16
- 0.1525 1 2 cbr 210 ------- 0 1.0 7.0 14 16
r 0.152857 3 5 cbr 210 ------- 0 1.0 7.0 5 6
+ 0.152857 5 7 cbr 210 ------- 0 1.0 7.0 5 6
- 0.152857 5 7 cbr 210 ------- 0 1.0 7.0 5 6
r 0.15293 1 2 cbr 210 ------- 0 1.0 7.0 11 13
+ 0.15293 2 3 cbr 210 ------- 0 1.0 7.0 11 13
- 0.15293 2 3 cbr 210 ------- 0 1.0 7.0 11 13
r 0.153287 5 7 cbr 210 ------- 0 1.0 7.0 2 3
r 0.156177 2 3 cbr 210 ------- 0 1.0 7.0 9 10
+ 0.156177 3 5 cbr 210 ------- 0 1.0 7.0 9 10
- 0.156177 3 5 cbr 210 ------- 0 1.0 7.0 9 10
+ 0.15625 1 2 cbr 210 ------- 0 1.0 7.0 15 17
- 0.15625 1 2 cbr 210 ------- 0 1.0 7.0 15 17
r 0.156607 3 5 cbr 210 ------- 0 1.0 7.0 6 7
+ 0.156607 5 7 cbr 210 ------- 0 1.0 7.0 6 7
- 0.156607 5 7 cbr 210 ------- 0 1.0 7.0 6 7
r 0.15668 1 2 cbr 210 ------- 0 1.0 7.0 12 14
+ 0.15668 2 3 cbr 210 ------- 0 1.0 7.0 12 14
- 0.15668 2 3 cbr 210 ------- 0 1.0 7.0 12 14
r 0.157037 5 7 cbr 210 ------- 0 1.0 7.0 3 4
r 0.159927 2 3 cbr 210 ------- 0 1.0 7.0 10 11
+ 0.159927 3 5 cbr 210 ------- 0 1.0 7.0 10 11
- 0.159927 3 5 cbr 210 ------- 0 1.0 7.0 10 11
+ 0.16 1 2 cbr 210 ------- 0 1.0 7.0 16 18
- 0.16 1 2 cbr 210 ------- 0 1.0 7.0 16 18
r 0.160357 3 5 cbr 210 ------- 0 1.0 7.0 7 8
+ 0.160357 5 7 cbr 210 ------- 0 1.0 7.0 7 8
- 0.160357 5 7 cbr 210 ------- 0 1.0 7.0 7 8
r 0.16043 1 2 cbr 210 ------- 0 1.0 7.0 13 15
+ 0.16043 2 3 cbr 210 ------- 0 1.0 7.0 13 15
- 0.16043 2 3 cbr 210 ------- 0 1.0 7.0 13 15
r 0.160787 5 7 cbr 210 ------- 0 1.0 7.0 4 5
r 0.161742 4 3 ack 40 ------- 0 6.0 0.0 0 12
+ 0.161742 3 2 ack 40 ------- 0 6.0 0.0 0 12
- 0.161742 3 2 ack 40 ------- 0 6.0 0.0 0 12
r 0.163677 2 3 cbr 210 ------- 0 1.0 7.0 11 13
+ 0.163677 3 5 cbr 210 ------- 0 1.0 7.0 11 13
- 0.163677 3 5 cbr 210 ------- 0 1.0 7.0 11 13
+ 0.16375 1 2 cbr 210 ------- 0 1.0 7.0 17 19
- 0.16375 1 2 cbr 210 ------- 0 1.0 7.0 17 19
r 0.164107 3 5 cbr 210 ------- 0 1.0 7.0 8 9
+ 0.164107 5 7 cbr 210 ------- 0 1.0 7.0 8 9
- 0.164107 5 7 cbr 210 ------- 0 1.0 7.0 8 9
r 0.16418 1 2 cbr 210 ------- 0 1.0 7.0 14 16
+ 0.16418 2 3 cbr 210 ------- 0 1.0 7.0 14 16
- 0.16418 2 3 cbr 210 ------- 0 1.0 7.0 14 16
r 0.164537 5 7 cbr 210 ------- 0 1.0 7.0 5 6
r 0.167427 2 3 cbr 210 ------- 0 1.0 7.0 12 14
+ 0.167427 3 5 cbr 210 ------- 0 1.0 7.0 12 14
- 0.167427 3 5 cbr 210 ------- 0 1.0 7.0 12 14
+ 0.1675 1 2 cbr 210 ------- 0 1.0 7.0 18 20
- 0.1675 1 2 cbr 210 ------- 0 1.0 7.0 18 20
r 0.167857 3 5 cbr 210 ------- 0 1.0 7.0 9 10
+ 0.167857 5 7 cbr 210 ------- 0 1.0 7.0 9 10
- 0.167857 5 7 cbr 210 ------- 0 1.0 7.0 9 10
r 0.16793 1 2 cbr 210 ------- 0 1.0 7.0 15 17
+ 0.16793 2 3 cbr 210 ------- 0 1.0 7.0 15 17
- 0.16793 2 3 cbr 210 ------- 0 1.0 7.0 15 17
r 0.168287 5 7 cbr 210 ------- 0 1.0 7.0 6 7
r 0.171177 2 3 cbr 210 ------- 0 1.0 7.0 13 15
+ 0.171177 3 5 cbr 210 ------- 0 1.0 7.0 13 15
- 0.171177 3 5 cbr 210 ------- 0 1.0 7.0 13 15
+ 0.17125 1 2 cbr 210 ------- 0 1.0 7.0 19 21
- 0.17125 1 2 cbr 210 ------- 0 1.0 7.0 19 21
r 0.171607 3 5 cbr 210 ------- 0 1.0 7.0 10 11
+ 0.171607 5 7 cbr 210 ------- 0 1.0 7.0 10 11
- 0.171607 5 7 cbr 210 ------- 0 1.0 7.0 10 11
r 0.17168 1 2 cbr 210 ------- 0 1.0 7.0 16 18
+ 0.17168 2 3 cbr 210 ------- 0 1.0 7.0 16 18
- 0.17168 2 3 cbr 210 ------- 0 1.0 7.0 16 18
r 0.171884 3 2 ack 40 ------- 0 6.0 0.0 0 12
+ 0.171884 2 0 ack 40 ------- 0 6.0 0.0 0 12
- 0.171884 2 0 ack 40 ------- 0 6.0 0.0 0 12
r 0.172037 5 7 cbr 210 ------- 0 1.0 7.0 7 8
r 0.174927 2 3 cbr 210 ------- 0 1.0 7.0 14 16
+ 0.174927 3 5 cbr 210 ------- 0 1.0 7.0 14 16
- 0.174927 3 5 cbr 210 ------- 0 1.0 7.0 14 16
+ 0.175 1 2 cbr 210 ------- 0 1.0 7.0 20 22
- 0.175 1 2 cbr 210 ------- 0 1.0 7.0 20 22
r 0.175357 3 5 cbr 210 ------- 0 1.0 7.0 11 13
+ 0.175357 5 7 cbr 210 ------- 0 1.0 7.0 11 13
- 0.175357 5 7 cbr 210 ------- 0 1.0 7.0 11 13
r 0.17543 1 2 cbr 210 ------- 0 1.0 7.0 17 19
+ 0.17543 2 3 cbr 210 ------- 0 1.0 7.0 17 19
- 0.17543 2 3 cbr 210 ------- 0 1.0 7.0 17 19
r 0.175787 5 7 cbr 210 ------- 0 1.0 7.0 8 9
r 0.178677 2 3 cbr 210 ------- 0 1.0 7.0 15 17
+ 0.178677 3 5 cbr 210 ------- 0 1.0 7.0 15 17
- 0.178677 3 5 cbr 210 ------- 0 1.0 7.0 15 17
+ 0.17875 1 2 cbr 210 ------- 0 1.0 7.0 21 23
- 0.17875 1 2 cbr 210 ------- 0 1.0 7.0 21 23
r 0.179107 3 5 cbr 210 ------- 0 1.0 7.0 12 14
+ 0.179107 5 7 cbr 210 ------- 0 1.0 7.0 12 14
- 0.179107 5 7 cbr 210 ------- 0 1.0 7.0 12 14
r 0.17918 1 2 cbr 210 ------- 0 1.0 7.0 18 20
+ 0.17918 2 3 cbr 210 ------- 0 1.0 7.0 18 20
- 0.17918 2 3 cbr 210 ------- 0 1.0 7.0 18 20
r 0.179537 5 7 cbr 210 ------- 0 1.0 7.0 9 10
r 0.182204 2 0 ack 40 ------- 0 6.0 0.0 0 12
+ 0.182204 0 2 tcp 1040 ------- 0 0.0 6.0 1 24
- 0.182204 0 2 tcp 1040 ------- 0 0.0 6.0 1 24
+ 0.182204 0 2 tcp 1040 ------- 0 0.0 6.0 2 25
r 0.182427 2 3 cbr 210 ------- 0 1.0 7.0 16 18
+ 0.182427 3 5 cbr 210 ------- 0 1.0 7.0 16 18
- 0.182427 3 5 cbr 210 ------- 0 1.0 7.0 16 18
+ 0.1825 1 2 cbr 210 ------- 0 1.0 7.0 22 26
- 0.1825 1 2 cbr 210 ------- 0 1.0 7.0 22 26
r 0.182857 3 5 cbr 210 ------- 0 1.0 7.0 13 15
+ 0.182857 5 7 cbr 210 ------- 0 1.0 7.0 13 15
- 0.182857 5 7 cbr 210 ------- 0 1.0 7.0 13 15
r 0.18293 1 2 cbr 210 ------- 0 1.0 7.0 19 21
+ 0.18293 2 3 cbr 210 ------- 0 1.0 7.0 19 21
- 0.18293 2 3 cbr 210 ------- 0 1.0 7.0 19 21
r 0.183287 5 7 cbr 210 ------- 0 1.0 7.0 10 11
r 0.186177 2 3 cbr 210 ------- 0 1.0 7.0 17 19
+ 0.186177 3 5 cbr 210 ------- 0 1.0 7.0 17 19
- 0.186177 3 5 cbr 210 ------- 0 1.0 7.0 17 19
+ 0.18625 1 2 cbr 210 ------- 0 1.0 7.0 23 27
- 0.18625 1 2 cbr 210 ------- 0 1.0 7.0 23 27
r 0.186607 3 5 cbr 210 ------- 0 1.0 7.0 14 16
+ 0.186607 5 7 cbr 210 ------- 0 1.0 7.0 14 16
- 0.186607 5 7 cbr 210 ------- 0 1.0 7.0 14 16
r 0.18668 1 2 cbr 210 ------- 0 1.0 7.0 20 22
+ 0.18668 2 3 cbr 210 ------- 0 1.0 7.0 20 22
- 0.18668 2 3 cbr 210 ------- 0 1.0 7.0 20 22
r 0.187037 5 7 cbr 210 ------- 0 1.0 7.0 11 13
r 0.189927 2 3 cbr 210 ------- 0 1.0 7.0 18 20
+ 0.189927 3 5 cbr 210 ------- 0 1.0 7.0 18 20
- 0.189927 3 5 cbr 210 ------- 0 1.0 7.0 18 20
+ 0.19 1 2 cbr 210 ------- 0 1.0 7.0 24 28
- 0.19 1 2 cbr 210 ------- 0 1.0 7.0 24 28
r 0.190357 3 5 cbr 210 ------- 0 1.0 7.0 15 17
+ 0.190357 5 7 cbr 210 ------- 0 1.0 7.0 15 17
- 0.190357 5 7 cbr 210 ------- 0 1.0 7.0 15 17
r 0.19043 1 2 cbr 210 ------- 0 1.0 7.0 21 23
+ 0.19043 2 3 cbr 210 ------- 0 1.0 7.0 21 23
- 0.19043 2 3 cbr 210 ------- 0 1.0 7.0 21 23
- 0.190524 0 2 tcp 1040 ------- 0 0.0 6.0 2 25
r 0.190787 5 7 cbr 210 ------- 0 1.0 7.0 12 14
r 0.193677 2 3 cbr 210 ------- 0 1.0 7.0 19 21
+ 0.193677 3 5 cbr 210 ------- 0 1.0 7.0 19 21
- 0.193677 3 5 cbr 210 ------- 0 1.0 7.0 19 21
+ 0.19375 1 2 cbr 210 ------- 0 1.0 7.0 25 29
- 0.19375 1 2 cbr 210 ------- 0 1.0 7.0 25 29
r 0.194107 3 5 cbr 210 ------- 0 1.0 7.0 16 18
+ 0.194107 5 7 cbr 210 ------- 0 1.0 7.0 16 18
- 0.194107 5 7 cbr 210 ------- 0 1.0 7.0 16 18
r 0.19418 1 2 cbr 210 ------- 0 1.0 7.0 22 26
+ 0.19418 2 3 cbr 210 ------- 0 1.0 7.0 22 26
- 0.19418 2 3 cbr 210 ------- 0 1.0 7.0 22 26
r 0.194537 5 7 cbr 210 ------- 0 1.0 7.0 13 15
r 0.197427 2 3 cbr 210 ------- 0 1.0 7.0 20 22
+ 0.197427 3 5 cbr 210 ------- 0 1.0 7.0 20 22
- 0.197427 3 5 cbr 210 ------- 0 1.0 7.0 20 22
+ 0.1975 1 2 cbr 210 ------- 0 1.0 7.0 26 30
- 0.1975 1 2 cbr 210 ------- 0 1.0 7.0 26 30
r 0.197857 3 5 cbr 210 ------- 0 1.0 7.0 17 19
+ 0.197857 5 7 cbr 210 ------- 0 1.0 7.0 17 19
- 0.197857 5 7 cbr 210 ------- 0 1.0 7.0 17 19
r 0.19793 1 2 cbr 210 ------- 0 1.0 7.0 23 27
+ 0.19793 2 3 cbr 210 ------- 0 1.0 7.0 23 27
- 0.19793 2 3 cbr 210 ------- 0 1.0 7.0 23 27
r 0.198287 5 7 cbr 210 ------- 0 1.0 7.0 14 16
r 0.200524 0 2 tcp 1040 ------- 0 0.0 6.0 1 24
+ 0.200524 2 3 tcp 1040 ------- 0 0.0 6.0 1 24
- 0.200524 2 3 tcp 1040 ------- 0 0.0 6.0 1 24
r 0.201177 2 3 cbr 210 ------- 0 1.0 7.0 21 23
+ 0.201177 3 5 cbr 210 ------- 0 1.0 7.0 21 23
- 0.201177 3 5 cbr 210 ------- 0 1.0 7.0 21 23
+ 0.20125 1 2 cbr 210 ------- 0 1.0 7.0 27 31
- 0.20125 1 2 cbr 210 ------- 0 1.0 7.0 27 31
r 0.201607 3 5 cbr 210 ------- 0 1.0 7.0 18 20
+ 0.201607 5 7 cbr 210 ------- 0 1.0 7.0 18 20
- 0.201607 5 7 cbr 210 ------- 0 1.0 7.0 18 20
r 0.20168 1 2 cbr 210 ------- 0 1.0 7.0 24 28
+ 0.20168 2 3 cbr 210 ------- 0 1.0 7.0 24 28
r 0.202037 5 7 cbr 210 ------- 0 1.0 7.0 15 17
- 0.204222 2 3 cbr 210 ------- 0 1.0 7.0 24 28
r 0.204927 2 3 cbr 210 ------- 0 1.0 7.0 22 26
+ 0.204927 3 5 cbr 210 ------- 0 1.0 7.0 22 26
- 0.204927 3 5 cbr 210 ------- 0 1.0 7.0 22 26
+ 0.205 1 2 cbr 210 ------- 0 1.0 7.0 28 32
- 0.205 1 2 cbr 210 ------- 0 1.0 7.0 28 32
r 0.205357 3 5 cbr 210 ------- 0 1.0 7.0 19 21
+ 0.205357 5 7 cbr 210 ------- 0 1.0 7.0 19 21
- 0.205357 5 7 cbr 210 ------- 0 1.0 7.0 19 21
r 0.20543 1 2 cbr 210 ------- 0 1.0 7.0 25 29
+ 0.20543 2 3 cbr 210 ------- 0 1.0 7.0 25 29
- 0.20543 2 3 cbr 210 ------- 0 1.0 7.0 25 29
r 0.205787 5 7 cbr 210 ------- 0 1.0 7.0 16 18
r 0.208677 2 3 cbr 210 ------- 0 1.0 7.0 23 27
+ 0.208677 3 5 cbr 210 ------- 0 1.0 7.0 23 27
- 0.208677 3 5 cbr 210 ------- 0 1.0 7.0 23 27
+ 0.20875 1 2 cbr 210 ------- 0 1.0 7.0 29 33
- 0.20875 1 2 cbr 210 ------- 0 1.0 7.0 29 33
r 0.208844 0 2 tcp 1040 ------- 0 0.0 6.0 2 25
+ 0.208844 2 3 tcp 1040 ------- 0 0.0 6.0 2 25
- 0.208844 2 3 tcp 1040 ------- 0 0.0 6.0 2 25
r 0.209107 3 5 cbr 210 ------- 0 1.0 7.0 20 22
+ 0.209107 5 7 cbr 210 ------- 0 1.0 7.0 20 22
- 0.209107 5 7 cbr 210 ------- 0 1.0 7.0 20 22
r 0.20918 1 2 cbr 210 ------- 0 1.0 7.0 26 30
+ 0.20918 2 3 cbr 210 ------- 0 1.0 7.0 26 30
r 0.209537 5 7 cbr 210 ------- 0 1.0 7.0 17 19
+ 0.2125 1 2 cbr 210 ------- 0 1.0 7.0 30 34
- 0.2125 1 2 cbr 210 ------- 0 1.0 7.0 30 34
- 0.212542 2 3 cbr 210 ------- 0 1.0 7.0 26 30
r 0.212857 3 5 cbr 210 ------- 0 1.0 7.0 21 23
+ 0.212857 5 7 cbr 210 ------- 0 1.0 7.0 21 23
- 0.212857 5 7 cbr 210 ------- 0 1.0 7.0 21 23
r 0.21293 1 2 cbr 210 ------- 0 1.0 7.0 27 31
+ 0.21293 2 3 cbr 210 ------- 0 1.0 7.0 27 31
r 0.213287 5 7 cbr 210 ------- 0 1.0 7.0 18 20
- 0.213289 2 3 cbr 210 ------- 0 1.0 7.0 27 31
r 0.214222 2 3 tcp 1040 ------- 0 0.0 6.0 1 24
+ 0.214222 3 4 tcp 1040 ------- 0 0.0 6.0 1 24
- 0.214222 3 4 tcp 1040 ------- 0 0.0 6.0 1 24
r 0.214969 2 3 cbr 210 ------- 0 1.0 7.0 24 28
+ 0.214969 3 5 cbr 210 ------- 0 1.0 7.0 24 28
- 0.214969 3 5 cbr 210 ------- 0 1.0 7.0 24 28
r 0.216177 2 3 cbr 210 ------- 0 1.0 7.0 25 29
+ 0.216177 3 5 cbr 210 ------- 0 1.0 7.0 25 29
+ 0.21625 1 2 cbr 210 ------- 0 1.0 7.0 31 35
- 0.21625 1 2 cbr 210 ------- 0 1.0 7.0 31 35
r 0.216607 3 5 cbr 210 ------- 0 1.0 7.0 22 26
+ 0.216607 5 7 cbr 210 ------- 0 1.0 7.0 22 26
- 0.216607 5 7 cbr 210 ------- 0 1.0 7.0 22 26
- 0.216649 3 5 cbr 210 ------- 0 1.0 7.0 25 29
r 0.21668 1 2 cbr 210 ------- 0 1.0 7.0 28 32
+ 0.21668 2 3 cbr 210 ------- 0 1.0 7.0 28 32
- 0.21668 2 3 cbr 210 ------- 0 1.0 7.0 28 32
r 0.217037 5 7 cbr 210 ------- 0 1.0 7.0 19 21
+ 0.22 1 2 cbr 210 ------- 0 1.0 7.0 32 36
- 0.22 1 2 cbr 210 ------- 0 1.0 7.0 32 36
r 0.220357 3 5 cbr 210 ------- 0 1.0 7.0 23 27
+ 0.220357 5 7 cbr 210 ------- 0 1.0 7.0 23 27
- 0.220357 5 7 cbr 210 ------- 0 1.0 7.0 23 27
r 0.22043 1 2 cbr 210 ------- 0 1.0 7.0 29 33
+ 0.22043 2 3 cbr 210 ------- 0 1.0 7.0 29 33
- 0.22043 2 3 cbr 210 ------- 0 1.0 7.0 29 33
r 0.220787 5 7 cbr 210 ------- 0 1.0 7.0 20 22
r 0.222542 2 3 tcp 1040 ------- 0 0.0 6.0 2 25
+ 0.222542 3 4 tcp 1040 ------- 0 0.0 6.0 2 25
- 0.222542 3 4 tcp 1040 ------- 0 0.0 6.0 2 25
r 0.223289 2 3 cbr 210 ------- 0 1.0 7.0 26 30
+ 0.223289 3 5 cbr 210 ------- 0 1.0 7.0 26 30
- 0.223289 3 5 cbr 210 ------- 0 1.0 7.0 26 30
+ 0.22375 1 2 cbr 210 ------- 0 1.0 7.0 33 37
- 0.22375 1 2 cbr 210 ------- 0 1.0 7.0 33 37
r 0.224036 2 3 cbr 210 ------- 0 1.0 7.0 27 31
+ 0.224036 3 5 cbr 210 ------- 0 1.0 7.0 27 31
r 0.22418 1 2 cbr 210 ------- 0 1.0 7.0 30 34
+ 0.22418 2 3 cbr 210 ------- 0 1.0 7.0 30 34
- 0.22418 2 3 cbr 210 ------- 0 1.0 7.0 30 34
r 0.224537 5 7 cbr 210 ------- 0 1.0 7.0 21 23
- 0.224969 3 5 cbr 210 ------- 0 1.0 7.0 27 31
r 0.226649 3 5 cbr 210 ------- 0 1.0 7.0 24 28
+ 0.226649 5 7 cbr 210 ------- 0 1.0 7.0 24 28
- 0.226649 5 7 cbr 210 ------- 0 1.0 7.0 24 28
r 0.227427 2 3 cbr 210 ------- 0 1.0 7.0 28 32
+ 0.227427 3 5 cbr 210 ------- 0 1.0 7.0 28 32
- 0.227427 3 5 cbr 210 ------- 0 1.0 7.0 28 32
+ 0.2275 1 2 cbr 210 ------- 0 1.0 7.0 34 38
- 0.2275 1 2 cbr 210 ------- 0 1.0 7.0 34 38
r 0.22793 1 2 cbr 210 ------- 0 1.0 7.0 31 35
+ 0.22793 2 3 cbr 210 ------- 0 1.0 7.0 31 35
- 0.22793 2 3 cbr 210 ------- 0 1.0 7.0 31 35
r 0.228287 5 7 cbr 210 ------- 0 1.0 7.0 22 26
r 0.228329 3 5 cbr 210 ------- 0 1.0 7.0 25 29
+ 0.228329 5 7 cbr 210 ------- 0 1.0 7.0 25 29
- 0.228329 5 7 cbr 210 ------- 0 1.0 7.0 25 29
r 0.231177 2 3 cbr 210 ------- 0 1.0 7.0 29 33
+ 0.231177 3 5 cbr 210 ------- 0 1.0 7.0 29 33
- 0.231177 3 5 cbr 210 ------- 0 1.0 7.0 29 33
+ 0.23125 1 2 cbr 210 ------- 0 1.0 7.0 35 39
- 0.23125 1 2 cbr 210 ------- 0 1.0 7.0 35 39
r 0.23168 1 2 cbr 210 ------- 0 1.0 7.0 32 36
+ 0.23168 2 3 cbr 210 ------- 0 1.0 7.0 32 36
- 0.23168 2 3 cbr 210 ------- 0 1.0 7.0 32 36
r 0.232037 5 7 cbr 210 ------- 0 1.0 7.0 23 27
r 0.232542 3 4 tcp 1040 ------- 0 0.0 6.0 1 24
+ 0.232542 4 6 tcp 1040 ------- 0 0.0 6.0 1 24
- 0.232542 4 6 tcp 1040 ------- 0 0.0 6.0 1 24
r 0.234927 2 3 cbr 210 ------- 0 1.0 7.0 30 34
+ 0.234927 3 5 cbr 210 ------- 0 1.0 7.0 30 34
- 0.234927 3 5 cbr 210 ------- 0 1.0 7.0 30 34
r 0.234969 3 5 cbr 210 ------- 0 1.0 7.0 26 30
+ 0.234969 5 7 cbr 210 ------- 0 1.0 7.0 26 30
- 0.234969 5 7 cbr 210 ------- 0 1.0 7.0 26 30
+ 0.235 1 2 cbr 210 ------- 0 1.0 7.0 36 40
- 0.235 1 2 cbr 210 ------- 0 1.0 7.0 36 40
r 0.23543 1 2 cbr 210 ------- 0 1.0 7.0 33 37
+ 0.23543 2 3 cbr 210 ------- 0 1.0 7.0 33 37
- 0.23543 2 3 cbr 210 ------- 0 1.0 7.0 33 37
r 0.236649 3 5 cbr 210 ------- 0 1.0 7.0 27 31
+ 0.236649 5 7 cbr 210 ------- 0 1.0 7.0 27 31
- 0.236649 5 7 cbr 210 ------- 0 1.0 7.0 27 31
r 0.238329 5 7 cbr 210 ------- 0 1.0 7.0 24 28
r 0.238677 2 3 cbr 210 ------- 0 1.0 7.0 31 35
+ 0.238677 3 5 cbr 210 ------- 0 1.0 7.0 31 35
- 0.238677 3 5 cbr 210 ------- 0 1.0 7.0 31 35
+ 0.23875 1 2 cbr 210 ------- 0 1.0 7.0 37 41
- 0.23875 1 2 cbr 210 ------- 0 1.0 7.0 37 41
r 0.239107 3 5 cbr 210 ------- 0 1.0 7.0 28 32
+ 0.239107 5 7 cbr 210 ------- 0 1.0 7.0 28 32
- 0.239107 5 7 cbr 210 ------- 0 1.0 7.0 28 32
r 0.23918 1 2 cbr 210 ------- 0 1.0 7.0 34 38
+ 0.23918 2 3 cbr 210 ------- 0 1.0 7.0 34 38
- 0.23918 2 3 cbr 210 ------- 0 1.0 7.0 34 38
r 0.240009 5 7 cbr 210 ------- 0 1.0 7.0 25 29
r 0.240862 3 4 tcp 1040 ------- 0 0.0 6.0 2 25
+ 0.240862 4 6 tcp 1040 ------- 0 0.0 6.0 2 25
- 0.240862 4 6 tcp 1040 ------- 0 0.0 6.0 2 25
r 0.242427 2 3 cbr 210 ------- 0 1.0 7.0 32 36
+ 0.242427 3 5 cbr 210 ------- 0 1.0 7.0 32 36
- 0.242427 3 5 cbr 210 ------- 0 1.0 7.0 32 36
+ 0.2425 1 2 cbr 210 ------- 0 1.0 7.0 38 42
- 0.2425 1 2 cbr 210 ------- 0 1.0 7.0 38 42
r 0.242857 3 5 cbr 210 ------- 0 1.0 7.0 29 33
+ 0.242857 5 7 cbr 210 ------- 0 1.0 7.0 29 33
- 0.242857 5 7 cbr 210 ------- 0 1.0 7.0 29 33
r 0.24293 1 2 cbr 210 ------- 0 1.0 7.0 35 39
+ 0.24293 2 3 cbr 210 ------- 0 1.0 7.0 35 39
- 0.24293 2 3 cbr 210 ------- 0 1.0 7.0 35 39
r 0.246177 2 3 cbr 210 ------- 0 1.0 7.0 33 37
+ 0.246177 3 5 cbr 210 ------- 0 1.0 7.0 33 37
- 0.246177 3 5 cbr 210 ------- 0 1.0 7.0 33 37
+ 0.24625 1 2 cbr 210 ------- 0 1.0 7.0 39 43
- 0.24625 1 2 cbr 210 ------- 0 1.0 7.0 39 43
r 0.246607 3 5 cbr 210 ------- 0 1.0 7.0 30 34
+ 0.246607 5 7 cbr 210 ------- 0 1.0 7.0 30 34
- 0.246607 5 7 cbr 210 ------- 0 1.0 7.0 30 34
r 0.246649 5 7 cbr 210 ------- 0 1.0 7.0 26 30
r 0.24668 1 2 cbr 210 ------- 0 1.0 7.0 36 40
+ 0.24668 2 3 cbr 210 ------- 0 1.0 7.0 36 40
- 0.24668 2 3 cbr 210 ------- 0 1.0 7.0 36 40
r 0.248329 5 7 cbr 210 ------- 0 1.0 7.0 27 31
r 0.249927 2 3 cbr 210 ------- 0 1.0 7.0 34 38
+ 0.249927 3 5 cbr 210 ------- 0 1.0 7.0 34 38
- 0.249927 3 5 cbr 210 ------- 0 1.0 7.0 34 38
+ 0.25 1 2 cbr 210 ------- 0 1.0 7.0 40 44
- 0.25 1 2 cbr 210 ------- 0 1.0 7.0 40 44
r 0.250357 3 5 cbr 210 ------- 0 1.0 7.0 31 35
+ 0.250357 5 7 cbr 210 ------- 0 1.0 7.0 31 35
- 0.250357 5 7 cbr 210 ------- 0 1.0 7.0 31 35
r 0.25043 1 2 cbr 210 ------- 0 1.0 7.0 37 41
+ 0.25043 2 3 cbr 210 ------- 0 1.0 7.0 37 41
- 0.25043 2 3 cbr 210 ------- 0 1.0 7.0 37 41
r 0.250787 5 7 cbr 210 ------- 0 1.0 7.0 28 32
r 0.250862 4 6 tcp 1040 ------- 0 0.0 6.0 1 24
+ 0.250862 6 4 ack 40 ------- 0 6.0 0.0 1 45
- 0.250862 6 4 ack 40 ------- 0 6.0 0.0 1 45
r 0.253677 2 3 cbr 210 ------- 0 1.0 7.0 35 39
+ 0.253677 3 5 cbr 210 ------- 0 1.0 7.0 35 39
- 0.253677 3 5 cbr 210 ------- 0 1.0 7.0 35 39
+ 0.25375 1 2 cbr 210 ------- 0 1.0 7.0 41 46
- 0.25375 1 2 cbr 210 ------- 0 1.0 7.0 41 46
r 0.254107 3 5 cbr 210 ------- 0 1.0 7.0 32 36
+ 0.254107 5 7 cbr 210 ------- 0 1.0 7.0 32 36
- 0.254107 5 7 cbr 210 ------- 0 1.0 7.0 32 36
r 0.25418 1 2 cbr 210 ------- 0 1.0 7.0 38 42
+ 0.25418 2 3 cbr 210 ------- 0 1.0 7.0 38 42
- 0.25418 2 3 cbr 210 ------- 0 1.0 7.0 38 42
r 0.254537 5 7 cbr 210 ------- 0 1.0 7.0 29 33
r 0.257427 2 3 cbr 210 ------- 0 1.0 7.0 36 40
+ 0.257427 3 5 cbr 210 ------- 0 1.0 7.0 36 40
- 0.257427 3 5 cbr 210 ------- 0 1.0 7.0 36 40
+ 0.2575 1 2 cbr 210 ------- 0 1.0 7.0 42 47
- 0.2575 1 2 cbr 210 ------- 0 1.0 7.0 42 47
r 0.257857 3 5 cbr 210 ------- 0 1.0 7.0 33 37
+ 0.257857 5 7 cbr 210 ------- 0 1.0 7.0 33 37
- 0.257857 5 7 cbr 210 ------- 0 1.0 7.0 33 37
r 0.25793 1 2 cbr 210 ------- 0 1.0 7.0 39 43
+ 0.25793 2 3 cbr 210 ------- 0 1.0 7.0 39 43
- 0.25793 2 3 cbr 210 ------- 0 1.0 7.0 39 43
r 0.258287 5 7 cbr 210 ------- 0 1.0 7.0 30 34
r 0.259182 4 6 tcp 1040 ------- 0 0.0 6.0 2 25
+ 0.259182 6 4 ack 40 ------- 0 6.0 0.0 2 48
- 0.259182 6 4 ack 40 ------- 0 6.0 0.0 2 48
r 0.261177 2 3 cbr 210 ------- 0 1.0 7.0 37 41
+ 0.261177 3 5 cbr 210 ------- 0 1.0 7.0 37 41
- 0.261177 3 5 cbr 210 ------- 0 1.0 7.0 37 41
r 0.261182 6 4 ack 40 ------- 0 6.0 0.0 1 45
+ 0.261182 4 3 ack 40 ------- 0 6.0 0.0 1 45
- 0.261182 4 3 ack 40 ------- 0 6.0 0.0 1 45
+ 0.26125 1 2 cbr 210 ------- 0 1.0 7.0 43 49
- 0.26125 1 2 cbr 210 ------- 0 1.0 7.0 43 49
r 0.261607 3 5 cbr 210 ------- 0 1.0 7.0 34 38
+ 0.261607 5 7 cbr 210 ------- 0 1.0 7.0 34 38
- 0.261607 5 7 cbr 210 ------- 0 1.0 7.0 34 38
r 0.26168 1 2 cbr 210 ------- 0 1.0 7.0 40 44
+ 0.26168 2 3 cbr 210 ------- 0 1.0 7.0 40 44
- 0.26168 2 3 cbr 210 ------- 0 1.0 7.0 40 44
r 0.262037 5 7 cbr 210 ------- 0 1.0 7.0 31 35
r 0.264927 2 3 cbr 210 ------- 0 1.0 7.0 38 42
+ 0.264927 3 5 cbr 210 ------- 0 1.0 7.0 38 42
- 0.264927 3 5 cbr 210 ------- 0 1.0 7.0 38 42
+ 0.265 1 2 cbr 210 ------- 0 1.0 7.0 44 50
- 0.265 1 2 cbr 210 ------- 0 1.0 7.0 44 50
r 0.265357 3 5 cbr 210 ------- 0 1.0 7.0 35 39
+ 0.265357 5 7 cbr 210 ------- 0 1.0 7.0 35 39
- 0.265357 5 7 cbr 210 ------- 0 1.0 7.0 35 39
r 0.26543 1 2 cbr 210 ------- 0 1.0 7.0 41 46
+ 0.26543 2 3 cbr 210 ------- 0 1.0 7.0 41 46
- 0.26543 2 3 cbr 210 ------- 0 1.0 7.0 41 46
r 0.265787 5 7 cbr 210 ------- 0 1.0 7.0 32 36
r 0.268677 2 3 cbr 210 ------- 0 1.0 7.0 39 43
+ 0.268677 3 5 cbr 210 ------- 0 1.0 7.0 39 43
- 0.268677 3 5 cbr 210 ------- 0 1.0 7.0 39 43
+ 0.26875 1 2 cbr 210 ------- 0 1.0 7.0 45 51
- 0.26875 1 2 cbr 210 ------- 0 1.0 7.0 45 51
r 0.269107 3 5 cbr 210 ------- 0 1.0 7.0 36 40
+ 0.269107 5 7 cbr 210 ------- 0 1.0 7.0 36 40
- 0.269107 5 7 cbr 210 ------- 0 1.0 7.0 36 40
r 0.26918 1 2 cbr 210 ------- 0 1.0 7.0 42 47
+ 0.26918 2 3 cbr 210 ------- 0 1.0 7.0 42 47
- 0.26918 2 3 cbr 210 ------- 0 1.0 7.0 42 47
r 0.269502 6 4 ack 40 ------- 0 6.0 0.0 2 48
+ 0.269502 4 3 ack 40 ------- 0 6.0 0.0 2 48
- 0.269502 4 3 ack 40 ------- 0 6.0 0.0 2 48
r 0.269537 5 7 cbr 210 ------- 0 1.0 7.0 33 37
r 0.271502 4 3 ack 40 ------- 0 6.0 0.0 1 45
+ 0.271502 3 2 ack 40 ------- 0 6.0 0.0 1 45
- 0.271502 3 2 ack 40 ------- 0 6.0 0.0 1 45
r 0.272427 2 3 cbr 210 ------- 0 1.0 7.0 40 44
+ 0.272427 3 5 cbr 210 ------- 0 1.0 7.0 40 44
- 0.272427 3 5 cbr 210 ------- 0 1.0 7.0 40 44
+ 0.2725 1 2 cbr 210 ------- 0 1.0 7.0 46 52
- 0.2725 1 2 cbr 210 ------- 0 1.0 7.0 46 52
r 0.272857 3 5 cbr 210 ------- 0 1.0 7.0 37 41
+ 0.272857 5 7 cbr 210 ------- 0 1.0 7.0 37 41
- 0.272857 5 7 cbr 210 ------- 0 1.0 7.0 37 41
r 0.27293 1 2 cbr 210 ------- 0 1.0 7.0 43 49
+ 0.27293 2 3 cbr 210 ------- 0 1.0 7.0 43 49
- 0.27293 2 3 cbr 210 ------- 0 1.0 7.0 43 49
r 0.273287 5 7 cbr 210 ------- 0 1.0 7.0 34 38
r 0.276177 2 3 cbr 210 ------- 0 1.0 7.0 41 46
+ 0.276177 3 5 cbr 210 ------- 0 1.0 7.0 41 46
- 0.276177 3 5 cbr 210 ------- 0 1.0 7.0 41 46
+ 0.27625 1 2 cbr 210 ------- 0 1.0 7.0 47 53
- 0.27625 1 2 cbr 210 ------- 0 1.0 7.0 47 53
r 0.276607 3 5 cbr 210 ------- 0 1.0 7.0 38 42
+ 0.276607 5 7 cbr 210 ------- 0 1.0 7.0 38 42
- 0.276607 5 7 cbr 210 ------- 0 1.0 7.0 38 42
r 0.27668 1 2 cbr 210 ------- 0 1.0 7.0 44 50
+ 0.27668 2 3 cbr 210 ------- 0 1.0 7.0 44 50
- 0.27668 2 3 cbr 210 ------- 0 1.0 7.0 44 50
r 0.277037 5 7 cbr 210 ------- 0 1.0 7.0 35 39
r 0.279822 4 3 ack 40 ------- 0 6.0 0.0 2 48
+ 0.279822 3 2 ack 40 ------- 0 6.0 0.0 2 48
- 0.279822 3 2 ack 40 ------- 0 6.0 0.0 2 48
r 0.279927 2 3 cbr 210 ------- 0 1.0 7.0 42 47
+ 0.279927 3 5 cbr 210 ------- 0 1.0 7.0 42 47
- 0.279927 3 5 cbr 210 ------- 0 1.0 7.0 42 47
+ 0.28 1 2 cbr 210 ------- 0 1.0 7.0 48 54
- 0.28 1 2 cbr 210 ------- 0 1.0 7.0 48 54
r 0.280357 3 5 cbr 210 ------- 0 1.0 7.0 39 43
+ 0.280357 5 7 cbr 210 ------- 0 1.0 7.0 39 43
- 0.280357 5 7 cbr 210 ------- 0 1.0 7.0 39 43
r 0.28043 1 2 cbr 210 ------- 0 1.0 7.0 45 51
+ 0.28043 2 3 cbr 210 ------- 0 1.0 7.0 45 51
- 0.28043 2 3 cbr 210 ------- 0 1.0 7.0 45 51
r 0.280787 5 7 cbr 210 ------- 0 1.0 7.0 36 40
r 0.281644 3 2 ack 40 ------- 0 6.0 0.0 1 45
+ 0.281644 2 0 ack 40 ------- 0 6.0 0.0 1 45
- 0.281644 2 0 ack 40 ------- 0 6.0 0.0 1 45
r 0.283677 2 3 cbr 210 ------- 0 1.0 7.0 43 49
+ 0.283677 3 5 cbr 210 ------- 0 1.0 7.0 43 49
- 0.283677 3 5 cbr 210 ------- 0 1.0 7.0 43 49
+ 0.28375 1 2 cbr 210 ------- 0 1.0 7.0 49 55
- 0.28375 1 2 cbr 210 ------- 0 1.0 7.0 49 55
r 0.284107 3 5 cbr 210 ------- 0 1.0 7.0 40 44
+ 0.284107 5 7 cbr 210 ------- 0 1.0 7.0 40 44
- 0.284107 5 7 cbr 210 ------- 0 1.0 7.0 40 44
r 0.28418 1 2 cbr 210 ------- 0 1.0 7.0 46 52
+ 0.28418 2 3 cbr 210 ------- 0 1.0 7.0 46 52
- 0.28418 2 3 cbr 210 ------- 0 1.0 7.0 46 52
r 0.284537 5 7 cbr 210 ------- 0 1.0 7.0 37 41
r 0.287427 2 3 cbr 210 ------- 0 1.0 7.0 44 50
+ 0.287427 3 5 cbr 210 ------- 0 1.0 7.0 44 50
- 0.287427 3 5 cbr 210 ------- 0 1.0 7.0 44 50
+ 0.2875 1 2 cbr 210 ------- 0 1.0 7.0 50 56
- 0.2875 1 2 cbr 210 ------- 0 1.0 7.0 50 56
r 0.287857 3 5 cbr 210 ------- 0 1.0 7.0 41 46
+ 0.287857 5 7 cbr 210 ------- 0 1.0 7.0 41 46
- 0.287857 5 7 cbr 210 ------- 0 1.0 7.0 41 46
r 0.28793 1 2 cbr 210 ------- 0 1.0 7.0 47 53
+ 0.28793 2 3 cbr 210 ------- 0 1.0 7.0 47 53
- 0.28793 2 3 cbr 210 ------- 0 1.0 7.0 47 53
r 0.288287 5 7 cbr 210 ------- 0 1.0 7.0 38 42
r 0.289964 3 2 ack 40 ------- 0 6.0 0.0 2 48
+ 0.289964 2 0 ack 40 ------- 0 6.0 0.0 2 48
- 0.289964 2 0 ack 40 ------- 0 6.0 0.0 2 48
r 0.291177 2 3 cbr 210 ------- 0 1.0 7.0 45 51
+ 0.291177 3 5 cbr 210 ------- 0 1.0 7.0 45 51
- 0.291177 3 5 cbr 210 ------- 0 1.0 7.0 45 51
+ 0.29125 1 2 cbr 210 ------- 0 1.0 7.0 51 57
- 0.29125 1 2 cbr 210 ------- 0 1.0 7.0 51 57
r 0.291607 3 5 cbr 210 ------- 0 1.0 7.0 42 47
+ 0.291607 5 7 cbr 210 ------- 0 1.0 7.0 42 47
- 0.291607 5 7 cbr 210 ------- 0 1.0 7.0 42 47
r 0.29168 1 2 cbr 210 ------- 0 1.0 7.0 48 54
+ 0.29168 2 3 cbr 210 ------- 0 1.0 7.0 48 54
- 0.29168 2 3 cbr 210 ------- 0 1.0 7.0 48 54
r 0.291964 2 0 ack 40 ------- 0 6.0 0.0 1 45
+ 0.291964 0 2 tcp 1040 ------- 0 0.0 6.0 3 58
- 0.291964 0 2 tcp 1040 ------- 0 0.0 6.0 3 58
+ 0.291964 0 2 tcp 1040 ------- 0 0.0 6.0 4 59
r 0.292037 5 7 cbr 210 ------- 0 1.0 7.0 39 43
r 0.294927 2 3 cbr 210 ------- 0 1.0 7.0 46 52
+ 0.294927 3 5 cbr 210 ------- 0 1.0 7.0 46 52
- 0.294927 3 5 cbr 210 ------- 0 1.0 7.0 46 52
+ 0.295 1 2 cbr 210 ------- 0 1.0 7.0 52 60
- 0.295 1 2 cbr 210 ------- 0 1.0 7.0 52 60
r 0.295357 3 5 cbr 210 ------- 0 1.0 7.0 43 49
+ 0.295357 5 7 cbr 210 ------- 0 1.0 7.0 43 49
- 0.295357 5 7 cbr 210 ------- 0 1.0 7.0 43 49
r 0.29543 1 2 cbr 210 ------- 0 1.0 7.0 49 55
+ 0.29543 2 3 cbr 210 ------- 0 1.0 7.0 49 55
- 0.29543 2 3 cbr 210 ------- 0 1.0 7.0 49 55
r 0.295787 5 7 cbr 210 ------- 0 1.0 7.0 40 44
r 0.298677 2 3 cbr 210 ------- 0 1.0 7.0 47 53
+ 0.298677 3 5 cbr 210 ------- 0 1.0 7.0 47 53
- 0.298677 3 5 cbr 210 ------- 0 1.0 7.0 47 53
+ 0.29875 1 2 cbr 210 ------- 0 1.0 7.0 53 61
- 0.29875 1 2 cbr 210 ------- 0 1.0 7.0 53 61
r 0.299107 3 5 cbr 210 ------- 0 1.0 7.0 44 50
+ 0.299107 5 7 cbr 210 ------- 0 1.0 7.0 44 50
- 0.299107 5 7 cbr 210 ------- 0 1.0 7.0 44 50
r 0.29918 1 2 cbr 210 ------- 0 1.0 7.0 50 56