+ 0.1 0 2 tcp 40 ------- 0 0.0 6.0 0 0
- 0.1 0 2 tcp 40 ------- 0 0.0 6.0 0 0
+ 0.1 1 2 cbr 210 ------- 0 1.0 7.0 0 1
- 0.1 1 2 cbr 210 ------- 0 1.0 7.0 0 1
+ 0.10375 1 2 cbr 210 ------- 0 1.0 7.0 1 2
- 0.10375 1 2 cbr 210 ------- 0 1.0 7.0 1 2
+ 0.1075 1 2 cbr 210 ------- 0 1.0 7.0 2 3
- 0.1075 1 2 cbr 210 ------- 0 1.0 7.0 2 3
r 0.11032 0 2 tcp 40 ------- 0 0.0 6.0 0 0
+ 0.11032 2 3 tcp 40 ------- 0 0.0 6.0 0 0
- 0.11032 2 3 tcp 40 ------- 0 0.0 6.0 0 0
+ 0.11125 1 2 cbr 210 ------- 0 1.0 7.0 3 4
- 0.11125 1 2 cbr 210 ------- 0 1.0 7.0 3 4
r 0.11168 1 2 cbr 210 ------- 0 1.0 7.0 0 1
+ 0.11168 2 3 cbr 210 ------- 0 1.0 7.0 0 1
- 0.11168 2 3 cbr 210 ------- 0 1.0 7.0 0 1
+ 0.115 1 2 cbr 210 ------- 0 1.0 7.0 4 5
- 0.115 1 2 cbr 210 ------- 0 1.0 7.0 4 5
r 0.11543 1 2 cbr 210 ------- 0 1.0 7.0 1 2
+ 0.11543 2 3 cbr 210 ------- 0 1.0 7.0 1 2
- 0.11543 2 3 cbr 210 ------- 0 1.0 7.0 1 2
+ 0.11875 1 2 cbr 210 ------- 0 1.0 7.0 5 6
- 0.11875 1 2 cbr 210 ------- 0 1.0 7.0 5 6
r 0.11918 1 2 cbr 210 ------- 0 1.0 7.0 2 3
+ 0.11918 2 3 cbr 210 ------- 0 1.0 7.0 2 3
- 0.11918 2 3 cbr 210 ------- 0 1.0 7.0 2 3
r 0.12096 2 3 tcp 40 ------- 0 0.0 6.0 0 0
+ 0.12096 3 4 tcp 40 ------- 0 0.0 6.0 0 0
- 0.12096 3 4 tcp 40 ------- 0 0.0 6.0 0 0
+ 0.1225 1 2 cbr 210 ------- 0 1.0 7.0 6 7
- 0.1225 1 2 cbr 210 ------- 0 1.0 7.0 6 7
r 0.12293 1 2 cbr 210 ------- 0 1.0 7.0 3 4
+ 0.12293 2 3 cbr 210 ------- 0 1.0 7.0 3 4
- 0.12293 2 3 cbr 210 ------- 0 1.0 7.0 3 4
r 0.12504 2 3 cbr 210 ------- 0 1.0 7.0 0 1
+ 0.12504 3 5 cbr 210 ------- 0 1.0 7.0 0 1
- 0.12504 3 5 cbr 210 ------- 0 1.0 7.0 0 1
+ 0.12625 1 2 cbr 210 ------- 0 1.0 7.0 7 8
- 0.12625 1 2 cbr 210 ------- 0 1.0 7.0 7 8
r 0.12668 1 2 cbr 210 ------- 0 1.0 7.0 4 5
+ 0.12668 2 3 cbr 210 ------- 0 1.0 7.0 4 5
- 0.12668 2 3 cbr 210 ------- 0 1.0 7.0 4 5
r 0.12879 2 3 cbr 210 ------- 0 1.0 7.0 1 2
+ 0.12879 3 5 cbr 210 ------- 0 1.0 7.0 1 2
- 0.12879 3 5 cbr 210 ------- 0 1.0 7.0 1 2
+ 0.13 1 2 cbr 210 ------- 0 1.0 7.0 8 9
- 0.13 1 2 cbr 210 ------- 0 1.0 7.0 8 9
r 0.13043 1 2 cbr 210 ------- 0 1.0 7.0 5 6
+ 0.13043 2 3 cbr 210 ------- 0 1.0 7.0 5 6
- 0.13043 2 3 cbr 210 ------- 0 1.0 7.0 5 6
r 0.13128 3 4 tcp 40 ------- 0 0.0 6.0 0 0
+ 0.13128 4 6 tcp 40 ------- 0 0.0 6.0 0 0
- 0.13128 4 6 tcp 40 ------- 0 0.0 6.0 0 0
r 0.13254 2 3 cbr 210 ------- 0 1.0 7.0 2 3
+ 0.13254 3 5 cbr 210 ------- 0 1.0 7.0 2 3
- 0.13254 3 5 cbr 210 ------- 0 1.0 7.0 2 3
+ 0.13375 1 2 cbr 210 ------- 0 1.0 7.0 9 10
- 0.13375 1 2 cbr 210 ------- 0 1.0 7.0 9 10
r 0.13418 1 2 cbr 210 ------- 0 1.0 7.0 6 7
+ 0.13418 2 3 cbr 210 ------- 0 1.0 7.0 6 7
- 0.13418 2 3 cbr 210 ------- 0 1.0 7.0 6 7
r 0.13629 2 3 cbr 210 ------- 0 1.0 7.0 3 4
+ 0.13629 3 5 cbr 210 ------- 0 1.0 7.0 3 4
- 0.13629 3 5 cbr 210 ------- 0 1.0 7.0 3 4
r 0.13672 3 5 cbr 210 ------- 0 1.0 7.0 0 1
+ 0.13672 5 7 cbr 210 ------- 0 1.0 7.0 0 1
- 0.13672 5 7 cbr 210 ------- 0 1.0 7.0 0 1
+ 0.1375 1 2 cbr 210 ------- 0 1.0 7.0 10 11
- 0.1375 1 2 cbr 210 ------- 0 1.0 7.0 10 11
r 0.13793 1 2 cbr 210 ------- 0 1.0 7.0 7 8
+ 0.13793 2 3 cbr 210 ------- 0 1.0 7.0 7 8
- 0.13793 2 3 cbr 210 ------- 0 1.0 7.0 7 8
r 0.14004 2 3 cbr 210 ------- 0 1.0 7.0 4 5
+ 0.14004 3 5 cbr 210 ------- 0 1.0 7.0 4 5
- 0.14004 3 5 cbr 210 ------- 0 1.0 7.0 4 5
r 0.14047 3 5 cbr 210 ------- 0 1.0 7.0 1 2
+ 0.14047 5 7 cbr 210 ------- 0 1.0 7.0 1 2
- 0.14047 5 7 cbr 210 ------- 0 1.0 7.0 1 2
+ 0.14125 1 2 cbr 210 ------- 0 1.0 7.0 11 12
- 0.14125 1 2 cbr 210 ------- 0 1.0 7.0 11 12
r 0.1416 4 6 tcp 40 ------- 0 0.0 6.0 0 0
+ 0.1416 6 4 ack 40 ------- 0 6.0 0.0 0 13
- 0.1416 6 4 ack 40 ------- 0 6.0 0.0 0 13
r 0.14168 1 2 cbr 210 ------- 0 1.0 7.0 8 9
+ 0.14168 2 3 cbr 210 ------- 0 1.0 7.0 8 9
- 0.14168 2 3 cbr 210 ------- 0 1.0 7.0 8 9
r 0.14379 2 3 cbr 210 ------- 0 1.0 7.0 5 6
+ 0.14379 3 5 cbr 210 ------- 0 1.0 7.0 5 6
- 0.14379 3 5 cbr 210 ------- 0 1.0 7.0 5 6
r 0.14422 3 5 cbr 210 ------- 0 1.0 7.0 2 3
+ 0.14422 5 7 cbr 210 ------- 0 1.0 7.0 2 3
- 0.14422 5 7 cbr 210 ------- 0 1.0 7.0 2 3
+ 0.145 1 2 cbr 210 ------- 0 1.0 7.0 12 14
- 0.145 1 2 cbr 210 ------- 0 1.0 7.0 12 14
r 0.14543 1 2 cbr 210 ------- 0 1.0 7.0 9 10
+ 0.14543 2 3 cbr 210 ------- 0 1.0 7.0 9 10
- 0.14543 2 3 cbr 210 ------- 0 1.0 7.0 9 10
r 0.14754 2 3 cbr 210 ------- 0 1.0 7.0 6 7
+ 0.14754 3 5 cbr 210 ------- 0 1.0 7.0 6 7
- 0.14754 3 5 cbr 210 ------- 0 1.0 7.0 6 7
r 0.14797 3 5 cbr 210 ------- 0 1.0 7.0 3 4
+ 0.14797 5 7 cbr 210 ------- 0 1.0 7.0 3 4
- 0.14797 5 7 cbr 210 ------- 0 1.0 7.0 3 4
r 0.1484 5 7 cbr 210 ------- 0 1.0 7.0 0 1
+ 0.14875 1 2 cbr 210 ------- 0 1.0 7.0 13 15
- 0.14875 1 2 cbr 210 ------- 0 1.0 7.0 13 15
r 0.14918 1 2 cbr 210 ------- 0 1.0 7.0 10 11
+ 0.14918 2 3 cbr 210 ------- 0 1.0 7.0 10 11
- 0.14918 2 3 cbr 210 ------- 0 1.0 7.0 10 11
r 0.15129 2 3 cbr 210 ------- 0 1.0 7.0 7 8
+ 0.15129 3 5 cbr 210 ------- 0 1.0 7.0 7 8
- 0.15129 3 5 cbr 210 ------- 0 1.0 7.0 7 8
r 0.15172 3 5 cbr 210 ------- 0 1.0 7.0 4 5
+ 0.15172 5 7 cbr 210 ------- 0 1.0 7.0 4 5
- 0.15172 5 7 cbr 210 ------- 0 1.0 7.0 4 5
r 0.15192 6 4 ack 40 ------- 0 6.0 0.0 0 13
+ 0.15192 4 3 ack 40 ------- 0 6.0 0.0 0 13
- 0.15192 4 3 ack 40 ------- 0 6.0 0.0 0 13
r 0.15215 5 7 cbr 210 ------- 0 1.0 7.0 1 2
+ 0.1525 1 2 cbr 210 ------- 0 1.0 7.0 14 16
- 0.1525 1 2 cbr 210 ------- 0 1.0 7.0 14 16
r 0.15293 1 2 cbr 210 ------- 0 1.0 7.0 11 12
+ 0.15293 2 3 cbr 210 ------- 0 1.0 7.0 11 12
- 0.15293 2 3 cbr 210 ------- 0 1.0 7.0 11 12
r 0.15504 2 3 cbr 210 ------- 0 1.0 7.0 8 9
+ 0.15504 3 5 cbr 210 ------- 0 1.0 7.0 8 9
- 0.15504 3 5 cbr 210 ------- 0 1.0 7.0 8 9
r 0.15547 3 5 cbr 210 ------- 0 1.0 7.0 5 6
+ 0.15547 5 7 cbr 210 ------- 0 1.0 7.0 5 6
- 0.15547 5 7 cbr 210 ------- 0 1.0 7.0 5 6
r 0.1559 5 7 cbr 210 ------- 0 1.0 7.0 2 3
+ 0.15625 1 2 cbr 210 ------- 0 1.0 7.0 15 17
- 0.15625 1 2 cbr 210 ------- 0 1.0 7.0 15 17
r 0.15668 1 2 cbr 210 ------- 0 1.0 7.0 12 14
+ 0.15668 2 3 cbr 210 ------- 0 1.0 7.0 12 14
- 0.15668 2 3 cbr 210 ------- 0 1.0 7.0 12 14
r 0.15879 2 3 cbr 210 ------- 0 1.0 7.0 9 10
+ 0.15879 3 5 cbr 210 ------- 0 1.0 7.0 9 10
- 0.15879 3 5 cbr 210 ------- 0 1.0 7.0 9 10
r 0.15922 3 5 cbr 210 ------- 0 1.0 7.0 6 7
+ 0.15922 5 7 cbr 210 ------- 0 1.0 7.0 6 7
- 0.15922 5 7 cbr 210 ------- 0 1.0 7.0 6 7
r 0.15965 5 7 cbr 210 ------- 0 1.0 7.0 3 4
+ 0.16 1 2 cbr 210 ------- 0 1.0 7.0 16 18
- 0.16 1 2 cbr 210 ------- 0 1.0 7.0 16 18
r 0.16043 1 2 cbr 210 ------- 0 1.0 7.0 13 15
+ 0.16043 2 3 cbr 210 ------- 0 1.0 7.0 13 15
- 0.16043 2 3 cbr 210 ------- 0 1.0 7.0 13 15
r 0.16224 4 3 ack 40 ------- 0 6.0 0.0 0 13
+ 0.16224 3 2 ack 40 ------- 0 6.0 0.0 0 13
- 0.16224 3 2 ack 40 ------- 0 6.0 0.0 0 13
r 0.16254 2 3 cbr 210 ------- 0 1.0 7.0 10 11
+ 0.16254 3 5 cbr 210 ------- 0 1.0 7.0 10 11
- 0.16254 3 5 cbr 210 ------- 0 1.0 7.0 10 11
r 0.16297 3 5 cbr 210 ------- 0 1.0 7.0 7 8
+ 0.16297 5 7 cbr 210 ------- 0 1.0 7.0 7 8
- 0.16297 5 7 cbr 210 ------- 0 1.0 7.0 7 8
r 0.1634 5 7 cbr 210 ------- 0 1.0 7.0 4 5
+ 0.16375 1 2 cbr 210 ------- 0 1.0 7.0 17 19
- 0.16375 1 2 cbr 210 ------- 0 1.0 7.0 17 19
r 0.16418 1 2 cbr 210 ------- 0 1.0 7.0 14 16
+ 0.16418 2 3 cbr 210 ------- 0 1.0 7.0 14 16
- 0.16418 2 3 cbr 210 ------- 0 1.0 7.0 14 16
r 0.16629 2 3 cbr 210 ------- 0 1.0 7.0 11 12
+ 0.16629 3 5 cbr 210 ------- 0 1.0 7.0 11 12
- 0.16629 3 5 cbr 210 ------- 0 1.0 7.0 11 12
r 0.16672 3 5 cbr 210 ------- 0 1.0 7.0 8 9
+ 0.16672 5 7 cbr 210 ------- 0 1.0 7.0 8 9
- 0.16672 5 7 cbr 210 ------- 0 1.0 7.0 8 9
r 0.16715 5 7 cbr 210 ------- 0 1.0 7.0 5 6
+ 0.1675 1 2 cbr 210 ------- 0 1.0 7.0 18 20
- 0.1675 1 2 cbr 210 ------- 0 1.0 7.0 18 20
r 0.16793 1 2 cbr 210 ------- 0 1.0 7.0 15 17
+ 0.16793 2 3 cbr 210 ------- 0 1.0 7.0 15 17
- 0.16793 2 3 cbr 210 ------- 0 1.0 7.0 15 17
r 0.17004 2 3 cbr 210 ------- 0 1.0 7.0 12 14
+ 0.17004 3 5 cbr 210 ------- 0 1.0 7.0 12 14
- 0.17004 3 5 cbr 210 ------- 0 1.0 7.0 12 14
r 0.17047 3 5 cbr 210 ------- 0 1.0 7.0 9 10
+ 0.17047 5 7 cbr 210 ------- 0 1.0 7.0 9 10
- 0.17047 5 7 cbr 210 ------- 0 1.0 7.0 9 10
r 0.1709 5 7 cbr 210 ------- 0 1.0 7.0 6 7
+ 0.17125 1 2 cbr 210 ------- 0 1.0 7.0 19 21
- 0.17125 1 2 cbr 210 ------- 0 1.0 7.0 19 21
r 0.17168 1 2 cbr 210 ------- 0 1.0 7.0 16 18
+ 0.17168 2 3 cbr 210 ------- 0 1.0 7.0 16 18
- 0.17168 2 3 cbr 210 ------- 0 1.0 7.0 16 18
r 0.17288 3 2 ack 40 ------- 0 6.0 0.0 0 13
+ 0.17288 2 0 ack 40 ------- 0 6.0 0.0 0 13
- 0.17288 2 0 ack 40 ------- 0 6.0 0.0 0 13
r 0.17379 2 3 cbr 210 ------- 0 1.0 7.0 13 15
+ 0.17379 3 5 cbr 210 ------- 0 1.0 7.0 13 15
- 0.17379 3 5 cbr 210 ------- 0 1.0 7.0 13 15
r 0.17422 3 5 cbr 210 ------- 0 1.0 7.0 10 11
+ 0.17422 5 7 cbr 210 ------- 0 1.0 7.0 10 11
- 0.17422 5 7 cbr 210 ------- 0 1.0 7.0 10 11
r 0.17465 5 7 cbr 210 ------- 0 1.0 7.0 7 8
+ 0.175 1 2 cbr 210 ------- 0 1.0 7.0 20 22
- 0.175 1 2 cbr 210 ------- 0 1.0 7.0 20 22
r 0.17543 1 2 cbr 210 ------- 0 1.0 7.0 17 19
+ 0.17543 2 3 cbr 210 ------- 0 1.0 7.0 17 19
- 0.17543 2 3 cbr 210 ------- 0 1.0 7.0 17 19
r 0.17754 2 3 cbr 210 ------- 0 1.0 7.0 14 16
+ 0.17754 3 5 cbr 210 ------- 0 1.0 7.0 14 16
- 0.17754 3 5 cbr 210 ------- 0 1.0 7.0 14 16
r 0.17797 3 5 cbr 210 ------- 0 1.0 7.0 11 12
+ 0.17797 5 7 cbr 210 ------- 0 1.0 7.0 11 12
- 0.17797 5 7 cbr 210 ------- 0 1.0 7.0 11 12
r 0.1784 5 7 cbr 210 ------- 0 1.0 7.0 8 9
+ 0.17875 1 2 cbr 210 ------- 0 1.0 7.0 21 23
- 0.17875 1 2 cbr 210 ------- 0 1.0 7.0 21 23
r 0.17918 1 2 cbr 210 ------- 0 1.0 7.0 18 20
+ 0.17918 2 3 cbr 210 ------- 0 1.0 7.0 18 20
- 0.17918 2 3 cbr 210 ------- 0 1.0 7.0 18 20
r 0.18129 2 3 cbr 210 ------- 0 1.0 7.0 15 17
+ 0.18129 3 5 cbr 210 ------- 0 1.0 7.0 15 17
- 0.18129 3 5 cbr 210 ------- 0 1.0 7.0 15 17
r 0.18172 3 5 cbr 210 ------- 0 1.0 7.0 12 14
+ 0.18172 5 7 cbr 210 ------- 0 1.0 7.0 12 14
- 0.18172 5 7 cbr 210 ------- 0 1.0 7.0 12 14
r 0.18215 5 7 cbr 210 ------- 0 1.0 7.0 9 10
+ 0.1825 1 2 cbr 210 ------- 0 1.0 7.0 22 24
- 0.1825 1 2 cbr 210 ------- 0 1.0 7.0 22 24
r 0.18293 1 2 cbr 210 ------- 0 1.0 7.0 19 21
+ 0.18293 2 3 cbr 210 ------- 0 1.0 7.0 19 21
- 0.18293 2 3 cbr 210 ------- 0 1.0 7.0 19 21
r 0.1832 2 0 ack 40 ------- 0 6.0 0.0 0 13
+ 0.1832 0 2 tcp 1040 ------- 0 0.0 6.0 1 25
- 0.1832 0 2 tcp 1040 ------- 0 0.0 6.0 1 25
+ 0.1832 0 2 tcp 1040 ------- 0 0.0 6.0 2 26
r 0.18504 2 3 cbr 210 ------- 0 1.0 7.0 16 18
+ 0.18504 3 5 cbr 210 ------- 0 1.0 7.0 16 18
- 0.18504 3 5 cbr 210 ------- 0 1.0 7.0 16 18
r 0.18547 3 5 cbr 210 ------- 0 1.0 7.0 13 15
+ 0.18547 5 7 cbr 210 ------- 0 1.0 7.0 13 15
- 0.18547 5 7 cbr 210 ------- 0 1.0 7.0 13 15
r 0.1859 5 7 cbr 210 ------- 0 1.0 7.0 10 11
+ 0.18625 1 2 cbr 210 ------- 0 1.0 7.0 23 27
- 0.18625 1 2 cbr 210 ------- 0 1.0 7.0 23 27
r 0.18668 1 2 cbr 210 ------- 0 1.0 7.0 20 22
+ 0.18668 2 3 cbr 210 ------- 0 1.0 7.0 20 22
- 0.18668 2 3 cbr 210 ------- 0 1.0 7.0 20 22
r 0.18879 2 3 cbr 210 ------- 0 1.0 7.0 17 19
+ 0.18879 3 5 cbr 210 ------- 0 1.0 7.0 17 19
- 0.18879 3 5 cbr 210 ------- 0 1.0 7.0 17 19
r 0.18922 3 5 cbr 210 ------- 0 1.0 7.0 14 16
+ 0.18922 5 7 cbr 210 ------- 0 1.0 7.0 14 16
- 0.18922 5 7 cbr 210 ------- 0 1.0 7.0 14 16
r 0.18965 5 7 cbr 210 ------- 0 1.0 7.0 11 12
+ 0.19 1 2 cbr 210 ------- 0 1.0 7.0 24 28
- 0.19 1 2 cbr 210 ------- 0 1.0 7.0 24 28
r 0.19043 1 2 cbr 210 ------- 0 1.0 7.0 21 23
+ 0.19043 2 3 cbr 210 ------- 0 1.0 7.0 21 23
- 0.19043 2 3 cbr 210 ------- 0 1.0 7.0 21 23
- 0.19152 0 2 tcp 1040 ------- 0 0.0 6.0 2 26
r 0.19254 2 3 cbr 210 ------- 0 1.0 7.0 18 20
+ 0.19254 3 5 cbr 210 ------- 0 1.0 7.0 18 20
- 0.19254 3 5 cbr 210 ------- 0 1.0 7.0 18 20
r 0.19297 3 5 cbr 210 ------- 0 1.0 7.0 15 17
+ 0.19297 5 7 cbr 210 ------- 0 1.0 7.0 15 17
- 0.19297 5 7 cbr 210 ------- 0 1.0 7.0 15 17
r 0.1934 5 7 cbr 210 ------- 0 1.0 7.0 12 14
+ 0.19375 1 2 cbr 210 ------- 0 1.0 7.0 25 29
- 0.19375 1 2 cbr 210 ------- 0 1.0 7.0 25 29
r 0.19418 1 2 cbr 210 ------- 0 1.0 7.0 22 24
+ 0.19418 2 3 cbr 210 ------- 0 1.0 7.0 22 24
- 0.19418 2 3 cbr 210 ------- 0 1.0 7.0 22 24
r 0.19629 2 3 cbr 210 ------- 0 1.0 7.0 19 21
+ 0.19629 3 5 cbr 210 ------- 0 1.0 7.0 19 21
- 0.19629 3 5 cbr 210 ------- 0 1.0 7.0 19 21
r 0.19672 3 5 cbr 210 ------- 0 1.0 7.0 16 18
+ 0.19672 5 7 cbr 210 ------- 0 1.0 7.0 16 18
- 0.19672 5 7 cbr 210 ------- 0 1.0 7.0 16 18
r 0.19715 5 7 cbr 210 ------- 0 1.0 7.0 13 15
+ 0.1975 1 2 cbr 210 ------- 0 1.0 7.0 26 30
- 0.1975 1 2 cbr 210 ------- 0 1.0 7.0 26 30
r 0.19793 1 2 cbr 210 ------- 0 1.0 7.0 23 27
+ 0.19793 2 3 cbr 210 ------- 0 1.0 7.0 23 27
- 0.19793 2 3 cbr 210 ------- 0 1.0 7.0 23 27
r 0.20004 2 3 cbr 210 ------- 0 1.0 7.0 20 22
+ 0.20004 3 5 cbr 210 ------- 0 1.0 7.0 20 22
- 0.20004 3 5 cbr 210 ------- 0 1.0 7.0 20 22
r 0.20047 3 5 cbr 210 ------- 0 1.0 7.0 17 19
+ 0.20047 5 7 cbr 210 ------- 0 1.0 7.0 17 19
- 0.20047 5 7 cbr 210 ------- 0 1.0 7.0 17 19
r 0.2009 5 7 cbr 210 ------- 0 1.0 7.0 14 16
+ 0.20125 1 2 cbr 210 ------- 0 1.0 7.0 27 31
- 0.20125 1 2 cbr 210 ------- 0 1.0 7.0 27 31
r 0.20152 0 2 tcp 1040 ------- 0 0.0 6.0 1 25
+ 0.20152 2 3 tcp 1040 ------- 0 0.0 6.0 1 25
- 0.20152 2 3 tcp 1040 ------- 0 0.0 6.0 1 25
r 0.20168 1 2 cbr 210 ------- 0 1.0 7.0 24 28
+ 0.20168 2 3 cbr 210 ------- 0 1.0 7.0 24 28
r 0.20379 2 3 cbr 210 ------- 0 1.0 7.0 21 23
+ 0.20379 3 5 cbr 210 ------- 0 1.0 7.0 21 23
- 0.20379 3 5 cbr 210 ------- 0 1.0 7.0 21 23
r 0.20422 3 5 cbr 210 ------- 0 1.0 7.0 18 20
+ 0.20422 5 7 cbr 210 ------- 0 1.0 7.0 18 20
- 0.20422 5 7 cbr 210 ------- 0 1.0 7.0 18 20
r 0.20465 5 7 cbr 210 ------- 0 1.0 7.0 15 17
+ 0.205 1 2 cbr 210 ------- 0 1.0 7.0 28 32
- 0.205 1 2 cbr 210 ------- 0 1.0 7.0 28 32
r 0.20543 1 2 cbr 210 ------- 0 1.0 7.0 25 29
+ 0.20543 2 3 cbr 210 ------- 0 1.0 7.0 25 29
r 0.20754 2 3 cbr 210 ------- 0 1.0 7.0 22 24
+ 0.20754 3 5 cbr 210 ------- 0 1.0 7.0 22 24
- 0.20754 3 5 cbr 210 ------- 0 1.0 7.0 22 24
r 0.20797 3 5 cbr 210 ------- 0 1.0 7.0 19 21
+ 0.20797 5 7 cbr 210 ------- 0 1.0 7.0 19 21
- 0.20797 5 7 cbr 210 ------- 0 1.0 7.0 19 21
r 0.2084 5 7 cbr 210 ------- 0 1.0 7.0 16 18
+ 0.20875 1 2 cbr 210 ------- 0 1.0 7.0 29 33
- 0.20875 1 2 cbr 210 ------- 0 1.0 7.0 29 33
r 0.20918 1 2 cbr 210 ------- 0 1.0 7.0 26 30
+ 0.20918 2 3 cbr 210 ------- 0 1.0 7.0 26 30
r 0.20984 0 2 tcp 1040 ------- 0 0.0 6.0 2 26
+ 0.20984 2 3 tcp 1040 ------- 0 0.0 6.0 2 26
r 0.21129 2 3 cbr 210 ------- 0 1.0 7.0 23 27
+ 0.21129 3 5 cbr 210 ------- 0 1.0 7.0 23 27
- 0.21129 3 5 cbr 210 ------- 0 1.0 7.0 23 27
r 0.21172 3 5 cbr 210 ------- 0 1.0 7.0 20 22
+ 0.21172 5 7 cbr 210 ------- 0 1.0 7.0 20 22
- 0.21172 5 7 cbr 210 ------- 0 1.0 7.0 20 22
r 0.21215 5 7 cbr 210 ------- 0 1.0 7.0 17 19
+ 0.2125 1 2 cbr 210 ------- 0 1.0 7.0 30 34
- 0.2125 1 2 cbr 210 ------- 0 1.0 7.0 30 34
r 0.21293 1 2 cbr 210 ------- 0 1.0 7.0 27 31
+ 0.21293 2 3 cbr 210 ------- 0 1.0 7.0 27 31
r 0.21547 3 5 cbr 210 ------- 0 1.0 7.0 21 23
+ 0.21547 5 7 cbr 210 ------- 0 1.0 7.0 21 23
- 0.21547 5 7 cbr 210 ------- 0 1.0 7.0 21 23
r 0.2159 5 7 cbr 210 ------- 0 1.0 7.0 18 20
+ 0.21625 1 2 cbr 210 ------- 0 1.0 7.0 31 35
- 0.21625 1 2 cbr 210 ------- 0 1.0 7.0 31 35
r 0.21668 1 2 cbr 210 ------- 0 1.0 7.0 28 32
+ 0.21668 2 3 cbr 210 ------- 0 1.0 7.0 28 32
- 0.21816 2 3 cbr 210 ------- 0 1.0 7.0 24 28
r 0.21922 3 5 cbr 210 ------- 0 1.0 7.0 22 24
+ 0.21922 5 7 cbr 210 ------- 0 1.0 7.0 22 24
- 0.21922 5 7 cbr 210 ------- 0 1.0 7.0 22 24
r 0.21965 5 7 cbr 210 ------- 0 1.0 7.0 19 21
+ 0.22 1 2 cbr 210 ------- 0 1.0 7.0 32 36
- 0.22 1 2 cbr 210 ------- 0 1.0 7.0 32 36
r 0.22043 1 2 cbr 210 ------- 0 1.0 7.0 29 33
+ 0.22043 2 3 cbr 210 ------- 0 1.0 7.0 29 33
- 0.22152 2 3 cbr 210 ------- 0 1.0 7.0 25 29
r 0.22297 3 5 cbr 210 ------- 0 1.0 7.0 23 27
+ 0.22297 5 7 cbr 210 ------- 0 1.0 7.0 23 27
- 0.22297 5 7 cbr 210 ------- 0 1.0 7.0 23 27
r 0.2234 5 7 cbr 210 ------- 0 1.0 7.0 20 22
+ 0.22375 1 2 cbr 210 ------- 0 1.0 7.0 33 37
- 0.22375 1 2 cbr 210 ------- 0 1.0 7.0 33 37
r 0.22418 1 2 cbr 210 ------- 0 1.0 7.0 30 34
+ 0.22418 2 3 cbr 210 ------- 0 1.0 7.0 30 34
- 0.22488 2 3 cbr 210 ------- 0 1.0 7.0 26 30
r 0.22715 5 7 cbr 210 ------- 0 1.0 7.0 21 23
+ 0.2275 1 2 cbr 210 ------- 0 1.0 7.0 34 38
- 0.2275 1 2 cbr 210 ------- 0 1.0 7.0 34 38
r 0.22793 1 2 cbr 210 ------- 0 1.0 7.0 31 35
+ 0.22793 2 3 cbr 210 ------- 0 1.0 7.0 31 35
r 0.22816 2 3 tcp 1040 ------- 0 0.0 6.0 1 25
+ 0.22816 3 4 tcp 1040 ------- 0 0.0 6.0 1 25
- 0.22816 3 4 tcp 1040 ------- 0 0.0 6.0 1 25
- 0.22824 2 3 tcp 1040 ------- 0 0.0 6.0 2 26
r 0.2309 5 7 cbr 210 ------- 0 1.0 7.0 22 24
+ 0.23125 1 2 cbr 210 ------- 0 1.0 7.0 35 39
- 0.23125 1 2 cbr 210 ------- 0 1.0 7.0 35 39
r 0.23152 2 3 cbr 210 ------- 0 1.0 7.0 24 28
+ 0.23152 3 5 cbr 210 ------- 0 1.0 7.0 24 28
- 0.23152 3 5 cbr 210 ------- 0 1.0 7.0 24 28
r 0.23168 1 2 cbr 210 ------- 0 1.0 7.0 32 36
+ 0.23168 2 3 cbr 210 ------- 0 1.0 7.0 32 36
r 0.23465 5 7 cbr 210 ------- 0 1.0 7.0 23 27
r 0.23488 2 3 cbr 210 ------- 0 1.0 7.0 25 29
+ 0.23488 3 5 cbr 210 ------- 0 1.0 7.0 25 29
- 0.23488 3 5 cbr 210 ------- 0 1.0 7.0 25 29
+ 0.235 1 2 cbr 210 ------- 0 1.0 7.0 36 40
- 0.235 1 2 cbr 210 ------- 0 1.0 7.0 36 40
r 0.23543 1 2 cbr 210 ------- 0 1.0 7.0 33 37
+ 0.23543 2 3 cbr 210 ------- 0 1.0 7.0 33 37
r 0.23824 2 3 cbr 210 ------- 0 1.0 7.0 26 30
+ 0.23824 3 5 cbr 210 ------- 0 1.0 7.0 26 30
- 0.23824 3 5 cbr 210 ------- 0 1.0 7.0 26 30
+ 0.23875 1 2 cbr 210 ------- 0 1.0 7.0 37 41
- 0.23875 1 2 cbr 210 ------- 0 1.0 7.0 37 41
r 0.23918 1 2 cbr 210 ------- 0 1.0 7.0 34 38
+ 0.23918 2 3 cbr 210 ------- 0 1.0 7.0 34 38
+ 0.2425 1 2 cbr 210 ------- 0 1.0 7.0 38 42
- 0.2425 1 2 cbr 210 ------- 0 1.0 7.0 38 42
r 0.24293 1 2 cbr 210 ------- 0 1.0 7.0 35 39
+ 0.24293 2 3 cbr 210 ------- 0 1.0 7.0 35 39
r 0.2432 3 5 cbr 210 ------- 0 1.0 7.0 24 28
+ 0.2432 5 7 cbr 210 ------- 0 1.0 7.0 24 28
- 0.2432 5 7 cbr 210 ------- 0 1.0 7.0 24 28
- 0.24488 2 3 cbr 210 ------- 0 1.0 7.0 27 31
+ 0.24625 1 2 cbr 210 ------- 0 1.0 7.0 39 43
- 0.24625 1 2 cbr 210 ------- 0 1.0 7.0 39 43
r 0.24648 3 4 tcp 1040 ------- 0 0.0 6.0 1 25
+ 0.24648 4 6 tcp 1040 ------- 0 0.0 6.0 1 25
- 0.24648 4 6 tcp 1040 ------- 0 0.0 6.0 1 25
r 0.24656 3 5 cbr 210 ------- 0 1.0 7.0 25 29
+ 0.24656 5 7 cbr 210 ------- 0 1.0 7.0 25 29
- 0.24656 5 7 cbr 210 ------- 0 1.0 7.0 25 29
r 0.24668 1 2 cbr 210 ------- 0 1.0 7.0 36 40
+ 0.24668 2 3 cbr 210 ------- 0 1.0 7.0 36 40
- 0.24824 2 3 cbr 210 ------- 0 1.0 7.0 28 32
r 0.24992 3 5 cbr 210 ------- 0 1.0 7.0 26 30
+ 0.24992 5 7 cbr 210 ------- 0 1.0 7.0 26 30
- 0.24992 5 7 cbr 210 ------- 0 1.0 7.0 26 30
+ 0.25 1 2 cbr 210 ------- 0 1.0 7.0 40 44
- 0.25 1 2 cbr 210 ------- 0 1.0 7.0 40 44
r 0.25043 1 2 cbr 210 ------- 0 1.0 7.0 37 41
+ 0.25043 2 3 cbr 210 ------- 0 1.0 7.0 37 41
- 0.2516 2 3 cbr 210 ------- 0 1.0 7.0 29 33
+ 0.25375 1 2 cbr 210 ------- 0 1.0 7.0 41 45
- 0.25375 1 2 cbr 210 ------- 0 1.0 7.0 41 45
r 0.25418 1 2 cbr 210 ------- 0 1.0 7.0 38 42
+ 0.25418 2 3 cbr 210 ------- 0 1.0 7.0 38 42
r 0.25488 2 3 tcp 1040 ------- 0 0.0 6.0 2 26
+ 0.25488 3 4 tcp 1040 ------- 0 0.0 6.0 2 26
- 0.25488 3 4 tcp 1040 ------- 0 0.0 6.0 2 26
r 0.25488 5 7 cbr 210 ------- 0 1.0 7.0 24 28
- 0.25496 2 3 cbr 210 ------- 0 1.0 7.0 30 34
+ 0.2575 1 2 cbr 210 ------- 0 1.0 7.0 42 46
- 0.2575 1 2 cbr 210 ------- 0 1.0 7.0 42 46
r 0.25793 1 2 cbr 210 ------- 0 1.0 7.0 39 43
+ 0.25793 2 3 cbr 210 ------- 0 1.0 7.0 39 43
r 0.25824 2 3 cbr 210 ------- 0 1.0 7.0 27 31
+ 0.25824 3 5 cbr 210 ------- 0 1.0 7.0 27 31
- 0.25824 3 5 cbr 210 ------- 0 1.0 7.0 27 31
r 0.25824 5 7 cbr 210 ------- 0 1.0 7.0 25 29
- 0.25832 2 3 cbr 210 ------- 0 1.0 7.0 31 35
+ 0.26125 1 2 cbr 210 ------- 0 1.0 7.0 43 47
- 0.26125 1 2 cbr 210 ------- 0 1.0 7.0 43 47
r 0.2616 2 3 cbr 210 ------- 0 1.0 7.0 28 32
+ 0.2616 3 5 cbr 210 ------- 0 1.0 7.0 28 32
- 0.2616 3 5 cbr 210 ------- 0 1.0 7.0 28 32
r 0.2616 5 7 cbr 210 ------- 0 1.0 7.0 26 30
- 0.26168 2 3 cbr 210 ------- 0 1.0 7.0 32 36
r 0.26168 1 2 cbr 210 ------- 0 1.0 7.0 40 44
+ 0.26168 2 3 cbr 210 ------- 0 1.0 7.0 40 44
r 0.2648 4 6 tcp 1040 ------- 0 0.0 6.0 1 25
+ 0.2648 6 4 ack 40 ------- 0 6.0 0.0 1 48
- 0.2648 6 4 ack 40 ------- 0 6.0 0.0 1 48
r 0.26496 2 3 cbr 210 ------- 0 1.0 7.0 29 33
+ 0.26496 3 5 cbr 210 ------- 0 1.0 7.0 29 33
- 0.26496 3 5 cbr 210 ------- 0 1.0 7.0 29 33
+ 0.265 1 2 cbr 210 ------- 0 1.0 7.0 44 49
- 0.265 1 2 cbr 210 ------- 0 1.0 7.0 44 49
- 0.26504 2 3 cbr 210 ------- 0 1.0 7.0 33 37
r 0.26543 1 2 cbr 210 ------- 0 1.0 7.0 41 45
+ 0.26543 2 3 cbr 210 ------- 0 1.0 7.0 41 45
r 0.26832 2 3 cbr 210 ------- 0 1.0 7.0 30 34
+ 0.26832 3 5 cbr 210 ------- 0 1.0 7.0 30 34
- 0.26832 3 5 cbr 210 ------- 0 1.0 7.0 30 34
- 0.2684 2 3 cbr 210 ------- 0 1.0 7.0 34 38
+ 0.26875 1 2 cbr 210 ------- 0 1.0 7.0 45 50
- 0.26875 1 2 cbr 210 ------- 0 1.0 7.0 45 50
r 0.26918 1 2 cbr 210 ------- 0 1.0 7.0 42 46
+ 0.26918 2 3 cbr 210 ------- 0 1.0 7.0 42 46
r 0.26992 3 5 cbr 210 ------- 0 1.0 7.0 27 31
+ 0.26992 5 7 cbr 210 ------- 0 1.0 7.0 27 31
- 0.26992 5 7 cbr 210 ------- 0 1.0 7.0 27 31
r 0.27168 2 3 cbr 210 ------- 0 1.0 7.0 31 35
+ 0.27168 3 5 cbr 210 ------- 0 1.0 7.0 31 35
- 0.27168 3 5 cbr 210 ------- 0 1.0 7.0 31 35
- 0.27176 2 3 cbr 210 ------- 0 1.0 7.0 35 39
+ 0.2725 1 2 cbr 210 ------- 0 1.0 7.0 46 51
- 0.2725 1 2 cbr 210 ------- 0 1.0 7.0 46 51
r 0.27293 1 2 cbr 210 ------- 0 1.0 7.0 43 47
+ 0.27293 2 3 cbr 210 ------- 0 1.0 7.0 43 47
r 0.2732 3 4 tcp 1040 ------- 0 0.0 6.0 2 26
+ 0.2732 4 6 tcp 1040 ------- 0 0.0 6.0 2 26
- 0.2732 4 6 tcp 1040 ------- 0 0.0 6.0 2 26
r 0.27328 3 5 cbr 210 ------- 0 1.0 7.0 28 32
+ 0.27328 5 7 cbr 210 ------- 0 1.0 7.0 28 32
- 0.27328 5 7 cbr 210 ------- 0 1.0 7.0 28 32
r 0.27504 2 3 cbr 210 ------- 0 1.0 7.0 32 36
+ 0.27504 3 5 cbr 210 ------- 0 1.0 7.0 32 36
- 0.27504 3 5 cbr 210 ------- 0 1.0 7.0 32 36
- 0.27512 2 3 cbr 210 ------- 0 1.0 7.0 36 40
r 0.27512 6 4 ack 40 ------- 0 6.0 0.0 1 48
+ 0.27512 4 3 ack 40 ------- 0 6.0 0.0 1 48
- 0.27512 4 3 ack 40 ------- 0 6.0 0.0 1 48
+ 0.27625 1 2 cbr 210 ------- 0 1.0 7.0 47 52
- 0.27625 1 2 cbr 210 ------- 0 1.0 7.0 47 52
r 0.27664 3 5 cbr 210 ------- 0 1.0 7.0 29 33
+ 0.27664 5 7 cbr 210 ------- 0 1.0 7.0 29 33
- 0.27664 5 7 cbr 210 ------- 0 1.0 7.0 29 33
r 0.27668 1 2 cbr 210 ------- 0 1.0 7.0 44 49
+ 0.27668 2 3 cbr 210 ------- 0 1.0 7.0 44 49
r 0.2784 2 3 cbr 210 ------- 0 1.0 7.0 33 37
+ 0.2784 3 5 cbr 210 ------- 0 1.0 7.0 33 37
- 0.2784 3 5 cbr 210 ------- 0 1.0 7.0 33 37
- 0.27848 2 3 cbr 210 ------- 0 1.0 7.0 37 41
+ 0.28 1 2 cbr 210 ------- 0 1.0 7.0 48 53
- 0.28 1 2 cbr 210 ------- 0 1.0 7.0 48 53
r 0.28 3 5 cbr 210 ------- 0 1.0 7.0 30 34
+ 0.28 5 7 cbr 210 ------- 0 1.0 7.0 30 34
- 0.28 5 7 cbr 210 ------- 0 1.0 7.0 30 34
r 0.28043 1 2 cbr 210 ------- 0 1.0 7.0 45 50
+ 0.28043 2 3 cbr 210 ------- 0 1.0 7.0 45 50
r 0.2816 5 7 cbr 210 ------- 0 1.0 7.0 27 31
r 0.28176 2 3 cbr 210 ------- 0 1.0 7.0 34 38
+ 0.28176 3 5 cbr 210 ------- 0 1.0 7.0 34 38
- 0.28176 3 5 cbr 210 ------- 0 1.0 7.0 34 38
- 0.28184 2 3 cbr 210 ------- 0 1.0 7.0 38 42
r 0.28336 3 5 cbr 210 ------- 0 1.0 7.0 31 35
+ 0.28336 5 7 cbr 210 ------- 0 1.0 7.0 31 35
- 0.28336 5 7 cbr 210 ------- 0 1.0 7.0 31 35
+ 0.28375 1 2 cbr 210 ------- 0 1.0 7.0 49 54
- 0.28375 1 2 cbr 210 ------- 0 1.0 7.0 49 54
r 0.28418 1 2 cbr 210 ------- 0 1.0 7.0 46 51
+ 0.28418 2 3 cbr 210 ------- 0 1.0 7.0 46 51
r 0.28496 5 7 cbr 210 ------- 0 1.0 7.0 28 32
r 0.28512 2 3 cbr 210 ------- 0 1.0 7.0 35 39
+ 0.28512 3 5 cbr 210 ------- 0 1.0 7.0 35 39
- 0.28512 3 5 cbr 210 ------- 0 1.0 7.0 35 39
- 0.2852 2 3 cbr 210 ------- 0 1.0 7.0 39 43
r 0.28544 4 3 ack 40 ------- 0 6.0 0.0 1 48
+ 0.28544 3 2 ack 40 ------- 0 6.0 0.0 1 48
- 0.28544 3 2 ack 40 ------- 0 6.0 0.0 1 48
r 0.28672 3 5 cbr 210 ------- 0 1.0 7.0 32 36
+ 0.28672 5 7 cbr 210 ------- 0 1.0 7.0 32 36
- 0.28672 5 7 cbr 210 ------- 0 1.0 7.0 32 36
+ 0.2875 1 2 cbr 210 ------- 0 1.0 7.0 50 55
- 0.2875 1 2 cbr 210 ------- 0 1.0 7.0 50 55
r 0.28793 1 2 cbr 210 ------- 0 1.0 7.0 47 52
+ 0.28793 2 3 cbr 210 ------- 0 1.0 7.0 47 52
r 0.28832 5 7 cbr 210 ------- 0 1.0 7.0 29 33
r 0.28848 2 3 cbr 210 ------- 0 1.0 7.0 36 40
+ 0.28848 3 5 cbr 210 ------- 0 1.0 7.0 36 40
- 0.28848 3 5 cbr 210 ------- 0 1.0 7.0 36 40
- 0.28856 2 3 cbr 210 ------- 0 1.0 7.0 40 44
r 0.29008 3 5 cbr 210 ------- 0 1.0 7.0 33 37
+ 0.29008 5 7 cbr 210 ------- 0 1.0 7.0 33 37
- 0.29008 5 7 cbr 210 ------- 0 1.0 7.0 33 37
+ 0.29125 1 2 cbr 210 ------- 0 1.0 7.0 51 56
- 0.29125 1 2 cbr 210 ------- 0 1.0 7.0 51 56
r 0.29152 4 6 tcp 1040 ------- 0 0.0 6.0 2 26
+ 0.29152 6 4 ack 40 ------- 0 6.0 0.0 2 57
- 0.29152 6 4 ack 40 ------- 0 6.0 0.0 2 57
r 0.29168 1 2 cbr 210 ------- 0 1.0 7.0 48 53
+ 0.29168 2 3 cbr 210 ------- 0 1.0 7.0 48 53
r 0.29168 5 7 cbr 210 ------- 0 1.0 7.0 30 34
r 0.29184 2 3 cbr 210 ------- 0 1.0 7.0 37 41
+ 0.29184 3 5 cbr 210 ------- 0 1.0 7.0 37 41
- 0.29184 3 5 cbr 210 ------- 0 1.0 7.0 37 41
- 0.29192 2 3 cbr 210 ------- 0 1.0 7.0 41 45
r 0.29344 3 5 cbr 210 ------- 0 1.0 7.0 34 38
+ 0.29344 5 7 cbr 210 ------- 0 1.0 7.0 34 38
- 0.29344 5 7 cbr 210 ------- 0 1.0 7.0 34 38
+ 0.295 1 2 cbr 210 ------- 0 1.0 7.0 52 58
- 0.295 1 2 cbr 210 ------- 0 1.0 7.0 52 58
r 0.29504 5 7 cbr 210 ------- 0 1.0 7.0 31 35
r 0.2952 2 3 cbr 210 ------- 0 1.0 7.0 38 42
+ 0.2952 3 5 cbr 210 ------- 0 1.0 7.0 38 42
- 0.2952 3 5 cbr 210 ------- 0 1.0 7.0 38 42
- 0.29528 2 3 cbr 210 ------- 0 1.0 7.0 42 46
r 0.29543 1 2 cbr 210 ------- 0 1.0 7.0 49 54
+ 0.29543 2 3 cbr 210 ------- 0 1.0 7.0 49 54
r 0.29608 3 2 ack 40 ------- 0 6.0 0.0 1 48
+ 0.29608 2 0 ack 40 ------- 0 6.0 0.0 1 48
- 0.29608 2 0 ack 40 ------- 0 6.0 0.0 1 48
r 0.2968 3 5 cbr 210 ------- 0 1.0 7.0 35 39
+ 0.2968 5 7 cbr 210 ------- 0 1.0 7.0 35 39
- 0.2968 5 7 cbr 210 ------- 0 1.0 7.0 35 39
r 0.2984 5 7 cbr 210 ------- 0 1.0 7.0 32 36
r 0.29856 2 3 cbr 210 ------- 0 1.0 7.0 39 43
+ 0.29856 3 5 cbr 210 ------- 0 1.0 7.0 39 43
- 0.29856 3 5 cbr 210 ------- 0 1.0 7.0 39 43
- 0.29864 2 3 cbr 210 ------- 0 1.0 7.0 43 47
+ 0.29875 1 2 cbr 210 ------- 0 1.0 7.0 53 59
- 0.29875 1 2 cbr 210 ------- 0 1.0 7.0 53 59
r 0.29918 1 2 cbr 210 ------- 0 1.0 7.0 50 55
+ 0.29918 2 3 cbr 210 ------- 0 1.0 7.0 50 55
r 0.30016 3 5 cbr 210 ------- 0 1.0 7.0 36 40
+ 0.30016 5 7 cbr 210 ------- 0 1.0 7.0 36 40
- 0.30016 5 7 cbr 210 ------- 0 1.0 7.0 36 40
r 0.30176 5 7 cbr 210 ------- 0 1.0 7.0 33 37
r 0.30184 6 4 ack 40 ------- 0 6.0 0.0 2 57
+ 0.30184 4 3 ack 40 ------- 0 6.0 0.0 2 57
- 0.30184 4 3 ack 40 ------- 0 6.0 0.0 2 57
r 0.30192 2 3 cbr 210 ------- 0 1.0 7.0 40 44
+ 0.30192 3 5 cbr 210 ------- 0 1.0 7.0 40 44
- 0.30192 3 5 cbr 210 ------- 0 1.0 7.0 40 44
- 0.302 2 3 cbr 210 ------- 0 1.0 7.0 44 49
+ 0.3025 1 2 cbr 210 ------- 0 1.0 7.0 54 60
- 0.3025 1 2 cbr 210 ------- 0 1.0 7.0 54 60
r 0.30293 1 2 cbr 210 ------- 0 1.0 7.0 51 56
+ 0.30293 2 3 cbr 210 ------- 0 1.0 7.0 51 56
r 0.30352 3 5 cbr 210 ------- 0 1.0 7.0 37 41
+ 0.30352 5 7 cbr 210 ------- 0 1.0 7.0 37 41
- 0.30352 5 7 cbr 210 ------- 0 1.0 7.0 37 41
r 0.30512 5 7 cbr 210 ------- 0 1.0 7.0 34 38
r 0.30528 2 3 cbr 210 ------- 0 1.0 7.0 41 45
+ 0.30528 3 5 cbr 210 ------- 0 1.0 7.0 41 45
- 0.30528 3 5 cbr 210 ------- 0 1.0 7.0 41 45
- 0.30536 2 3 cbr 210 ------- 0 1.0 7.0 45 50
+ 0.30625 1 2 cbr 210 ------- 0 1.0 7.0 55 61
- 0.30625 1 2 cbr 210 ------- 0 1.0 7.0 55 61
r 0.3064 2 0 ack 40 ------- 0 6.0 0.0 1 48
+ 0.3064 0 2 tcp 1040 ------- 0 0.0 6.0 3 62
- 0.3064 0 2 tcp 1040 ------- 0 0.0 6.0 3 62
+ 0.3064 0 2 tcp 1040 ------- 0 0.0 6.0 4 63
r 0.30668 1 2 cbr 210 ------- 0 1.0 7.0 52 58
+ 0.30668 2 3 cbr 210 ------- 0 1.0 7.0 52 58
r 0.30688 3 5 cbr 210 ------- 0 1.0 7.0 38 42
+ 0.30688 5 7 cbr 210 ------- 0 1.0 7.0 38 42
- 0.30688 5 7 cbr 210 ------- 0 1.0 7.0 38 42
r 0.30848 5 7 cbr 210 ------- 0 1.0 7.0 35 39
r 0.30864 2 3 cbr 210 ------- 0 1.0 7.0 42 46
+ 0.30864 3 5 cbr 210 ------- 0 1.0 7.0 42 46
- 0.30864 3 5 cbr 210 ------- 0 1.0 7.0 42 46
- 0.30872 2 3 cbr 210 ------- 0 1.0 7.0 46 51
+ 0.31 1 2 cbr 210 ------- 0 1.0 7.0 56 64
- 0.31 1 2 cbr 210 ------- 0 1.0 7.0 56 64
r 0.31024 3 5 cbr 210 ------- 0 1.0 7.0 39 43
+ 0.31024 5 7 cbr 210 ------- 0 1.0 7.0 39 43
- 0.31024 5 7 cbr 210 ------- 0 1.0 7.0 39 43
r 0.31043 1 2 cbr 210 ------- 0 1.0 7.0 53 59
+ 0.31043 2 3 cbr 210 ------- 0 1.0 7.0 53 59
r 0.31184 5 7 cbr 210 ------- 0 1.0 7.0 36 40
r 0.312 2 3 cbr 210 ------- 0 1.0 7.0 43 47
+ 0.312 3 5 cbr 210 ------- 0 1.0 7.0 43 47
- 0.312 3 5 cbr 210 ------- 0 1.0 7.0 43 47
- 0.31208 2 3 cbr 210 ------- 0 1.0 7.0 47 52
r 0.31216 4 3 ack 40 ------- 0 6.0 0.0 2 57
+ 0.31216 3 2 ack 40 ------- 0 6.0 0.0 2 57
- 0.31216 3 2 ack 40 ------- 0 6.0 0.0 2 57
r 0.3136 3 5 cbr 210 ------- 0 1.0 7.0 40 44
+ 0.3136 5 7 cbr 210 ------- 0 1.0 7.0 40 44
- 0.3136 5 7 cbr 210 ------- 0 1.0 7.0 40 44
+ 0.31375 1 2 cbr 210 ------- 0 1.0 7.0 57 65
- 0.31375 1 2 cbr 210 ------- 0 1.0 7.0 57 65
r 0.31418 1 2 cbr 210 ------- 0 1.0 7.0 54 60
+ 0.31418 2 3 cbr 210 ------- 0 1.0 7.0 54 60
- 0.31472 0 2 tcp 1040 ------- 0 0.0 6.0 4 63
r 0.3152 5 7 cbr 210 ------- 0 1.0 7.0 37 41
r 0.31536 2 3 cbr 210 ------- 0 1.0 7.0 44 49
+ 0.31536 3 5 cbr 210 ------- 0 1.0 7.0 44 49
- 0.31536 3 5 cbr 210 ------- 0 1.0 7.0 44 49
- 0.31544 2 3 cbr 210 ------- 0 1.0 7.0 48 53
r 0.31696 3 5 cbr 210 ------- 0 1.0 7.0 41 45
+ 0.31696 5 7 cbr 210 ------- 0 1.0 7.0 41 45
- 0.31696 5 7 cbr 210 ------- 0 1.0 7.0 41 45
+ 0.3175 1 2 cbr 210 ------- 0 1.0 7.0 58 66
- 0.3175 1 2 cbr 210 ------- 0 1.0 7.0 58 66
r 0.31793 1 2 cbr 210 ------- 0 1.0 7.0 55 61
+ 0.31793 2 3 cbr 210 ------- 0 1.0 7.0 55 61
r 0.31856 5 7 cbr 210 ------- 0 1.0 7.0 38 42
r 0.31872 2 3 cbr 210 ------- 0 1.0 7.0 45 50
+ 0.31872 3 5 cbr 210 ------- 0 1.0 7.0 45 50
- 0.31872 3 5 cbr 210 ------- 0 1.0 7.0 45 50
- 0.3188 2 3 cbr 210 ------- 0 1.0 7.0 49 54
r 0.32032 3 5 cbr 210 ------- 0 1.0 7.0 42 46
+ 0.32032 5 7 cbr 210 ------- 0 1.0 7.0 42 46
- 0.32032 5 7 cbr 210 ------- 0 1.0 7.0 42 46
+ 0.32125 1 2 cbr 210 ------- 0 1.0 7.0 59 67
- 0.32125 1 2 cbr 210 ------- 0 1.0 7.0 59 67
r 0.32168 1 2 cbr 210 ------- 0 1.0 7.0 56 64
+ 0.32168 2 3 cbr 210 ------- 0 1.0 7.0 56 64
r 0.32192 5 7 cbr 210 ------- 0 1.0 7.0 39 43