+ 0.1 0 2 tcp 40 ------- 0 0.0 6.0 0 0
- 0.1 0 2 tcp 40 ------- 0 0.0 6.0 0 0
+ 0.1 1 2 cbr 210 ------- 0 1.0 7.0 0 1
- 0.1 1 2 cbr 210 ------- 0 1.0 7.0 0 1
+ 0.10375 1 2 cbr 210 ------- 0 1.0 7.0 1 2
- 0.10375 1 2 cbr 210 ------- 0 1.0 7.0 1 2
+ 0.1075 1 2 cbr 210 ------- 0 1.0 7.0 2 3
- 0.1075 1 2 cbr 210 ------- 0 1.0 7.0 2 3
r 0.11032 0 2 tcp 40 ------- 0 0.0 6.0 0 0
+ 0.11032 2 3 tcp 40 ------- 0 0.0 6.0 0 0
- 0.11032 2 3 tcp 40 ------- 0 0.0 6.0 0 0
+ 0.11125 1 2 cbr 210 ------- 0 1.0 7.0 3 4
- 0.11125 1 2 cbr 210 ------- 0 1.0 7.0 3 4
r 0.11168 1 2 cbr 210 ------- 0 1.0 7.0 0 1
+ 0.11168 2 3 cbr 210 ------- 0 1.0 7.0 0 1
- 0.11168 2 3 cbr 210 ------- 0 1.0 7.0 0 1
+ 0.115 1 2 cbr 210 ------- 0 1.0 7.0 4 5
- 0.115 1 2 cbr 210 ------- 0 1.0 7.0 4 5
r 0.11543 1 2 cbr 210 ------- 0 1.0 7.0 1 2
+ 0.11543 2 3 cbr 210 ------- 0 1.0 7.0 1 2
- 0.11543 2 3 cbr 210 ------- 0 1.0 7.0 1 2
+ 0.11875 1 2 cbr 210 ------- 0 1.0 7.0 5 6
- 0.11875 1 2 cbr 210 ------- 0 1.0 7.0 5 6
r 0.11918 1 2 cbr 210 ------- 0 1.0 7.0 2 3
+ 0.11918 2 3 cbr 210 ------- 0 1.0 7.0 2 3
- 0.11918 2 3 cbr 210 ------- 0 1.0 7.0 2 3
r 0.120533 2 3 tcp 40 ------- 0 0.0 6.0 0 0
+ 0.120533 3 4 tcp 40 ------- 0 0.0 6.0 0 0
- 0.120533 3 4 tcp 40 ------- 0 0.0 6.0 0 0
+ 0.1225 1 2 cbr 210 ------- 0 1.0 7.0 6 7
- 0.1225 1 2 cbr 210 ------- 0 1.0 7.0 6 7
r 0.1228 2 3 cbr 210 ------- 0 1.0 7.0 0 1
+ 0.1228 3 5 cbr 210 ------- 0 1.0 7.0 0 1
- 0.1228 3 5 cbr 210 ------- 0 1.0 7.0 0 1
r 0.12293 1 2 cbr 210 ------- 0 1.0 7.0 3 4
+ 0.12293 2 3 cbr 210 ------- 0 1.0 7.0 3 4
- 0.12293 2 3 cbr 210 ------- 0 1.0 7.0 3 4
+ 0.12625 1 2 cbr 210 ------- 0 1.0 7.0 7 8
- 0.12625 1 2 cbr 210 ------- 0 1.0 7.0 7 8
r 0.12655 2 3 cbr 210 ------- 0 1.0 7.0 1 2
+ 0.12655 3 5 cbr 210 ------- 0 1.0 7.0 1 2
- 0.12655 3 5 cbr 210 ------- 0 1.0 7.0 1 2
r 0.12668 1 2 cbr 210 ------- 0 1.0 7.0 4 5
+ 0.12668 2 3 cbr 210 ------- 0 1.0 7.0 4 5
- 0.12668 2 3 cbr 210 ------- 0 1.0 7.0 4 5
+ 0.13 1 2 cbr 210 ------- 0 1.0 7.0 8 9
- 0.13 1 2 cbr 210 ------- 0 1.0 7.0 8 9
r 0.1303 2 3 cbr 210 ------- 0 1.0 7.0 2 3
+ 0.1303 3 5 cbr 210 ------- 0 1.0 7.0 2 3
- 0.1303 3 5 cbr 210 ------- 0 1.0 7.0 2 3
r 0.13043 1 2 cbr 210 ------- 0 1.0 7.0 5 6
+ 0.13043 2 3 cbr 210 ------- 0 1.0 7.0 5 6
- 0.13043 2 3 cbr 210 ------- 0 1.0 7.0 5 6
r 0.130853 3 4 tcp 40 ------- 0 0.0 6.0 0 0
+ 0.130853 4 6 tcp 40 ------- 0 0.0 6.0 0 0
- 0.130853 4 6 tcp 40 ------- 0 0.0 6.0 0 0
+ 0.13375 1 2 cbr 210 ------- 0 1.0 7.0 9 10
- 0.13375 1 2 cbr 210 ------- 0 1.0 7.0 9 10
r 0.13405 2 3 cbr 210 ------- 0 1.0 7.0 3 4
+ 0.13405 3 5 cbr 210 ------- 0 1.0 7.0 3 4
- 0.13405 3 5 cbr 210 ------- 0 1.0 7.0 3 4
r 0.13418 1 2 cbr 210 ------- 0 1.0 7.0 6 7
+ 0.13418 2 3 cbr 210 ------- 0 1.0 7.0 6 7
- 0.13418 2 3 cbr 210 ------- 0 1.0 7.0 6 7
r 0.13448 3 5 cbr 210 ------- 0 1.0 7.0 0 1
+ 0.13448 5 7 cbr 210 ------- 0 1.0 7.0 0 1
- 0.13448 5 7 cbr 210 ------- 0 1.0 7.0 0 1
+ 0.1375 1 2 cbr 210 ------- 0 1.0 7.0 10 11
- 0.1375 1 2 cbr 210 ------- 0 1.0 7.0 10 11
r 0.1378 2 3 cbr 210 ------- 0 1.0 7.0 4 5
+ 0.1378 3 5 cbr 210 ------- 0 1.0 7.0 4 5
- 0.1378 3 5 cbr 210 ------- 0 1.0 7.0 4 5
r 0.13793 1 2 cbr 210 ------- 0 1.0 7.0 7 8
+ 0.13793 2 3 cbr 210 ------- 0 1.0 7.0 7 8
- 0.13793 2 3 cbr 210 ------- 0 1.0 7.0 7 8
r 0.13823 3 5 cbr 210 ------- 0 1.0 7.0 1 2
+ 0.13823 5 7 cbr 210 ------- 0 1.0 7.0 1 2
- 0.13823 5 7 cbr 210 ------- 0 1.0 7.0 1 2
r 0.141173 4 6 tcp 40 ------- 0 0.0 6.0 0 0
+ 0.141173 6 4 ack 40 ------- 0 6.0 0.0 0 12
- 0.141173 6 4 ack 40 ------- 0 6.0 0.0 0 12
+ 0.14125 1 2 cbr 210 ------- 0 1.0 7.0 11 13
- 0.14125 1 2 cbr 210 ------- 0 1.0 7.0 11 13
r 0.14155 2 3 cbr 210 ------- 0 1.0 7.0 5 6
+ 0.14155 3 5 cbr 210 ------- 0 1.0 7.0 5 6
- 0.14155 3 5 cbr 210 ------- 0 1.0 7.0 5 6
r 0.14168 1 2 cbr 210 ------- 0 1.0 7.0 8 9
+ 0.14168 2 3 cbr 210 ------- 0 1.0 7.0 8 9
- 0.14168 2 3 cbr 210 ------- 0 1.0 7.0 8 9
r 0.14198 3 5 cbr 210 ------- 0 1.0 7.0 2 3
+ 0.14198 5 7 cbr 210 ------- 0 1.0 7.0 2 3
- 0.14198 5 7 cbr 210 ------- 0 1.0 7.0 2 3
+ 0.145 1 2 cbr 210 ------- 0 1.0 7.0 12 14
- 0.145 1 2 cbr 210 ------- 0 1.0 7.0 12 14
r 0.1453 2 3 cbr 210 ------- 0 1.0 7.0 6 7
+ 0.1453 3 5 cbr 210 ------- 0 1.0 7.0 6 7
- 0.1453 3 5 cbr 210 ------- 0 1.0 7.0 6 7
r 0.14543 1 2 cbr 210 ------- 0 1.0 7.0 9 10
+ 0.14543 2 3 cbr 210 ------- 0 1.0 7.0 9 10
- 0.14543 2 3 cbr 210 ------- 0 1.0 7.0 9 10
r 0.14573 3 5 cbr 210 ------- 0 1.0 7.0 3 4
+ 0.14573 5 7 cbr 210 ------- 0 1.0 7.0 3 4
- 0.14573 5 7 cbr 210 ------- 0 1.0 7.0 3 4
r 0.14616 5 7 cbr 210 ------- 0 1.0 7.0 0 1
+ 0.14875 1 2 cbr 210 ------- 0 1.0 7.0 13 15
- 0.14875 1 2 cbr 210 ------- 0 1.0 7.0 13 15
r 0.14905 2 3 cbr 210 ------- 0 1.0 7.0 7 8
+ 0.14905 3 5 cbr 210 ------- 0 1.0 7.0 7 8
- 0.14905 3 5 cbr 210 ------- 0 1.0 7.0 7 8
r 0.14918 1 2 cbr 210 ------- 0 1.0 7.0 10 11
+ 0.14918 2 3 cbr 210 ------- 0 1.0 7.0 10 11
- 0.14918 2 3 cbr 210 ------- 0 1.0 7.0 10 11
r 0.14948 3 5 cbr 210 ------- 0 1.0 7.0 4 5
+ 0.14948 5 7 cbr 210 ------- 0 1.0 7.0 4 5
- 0.14948 5 7 cbr 210 ------- 0 1.0 7.0 4 5
r 0.14991 5 7 cbr 210 ------- 0 1.0 7.0 1 2
r 0.151493 6 4 ack 40 ------- 0 6.0 0.0 0 12
+ 0.151493 4 3 ack 40 ------- 0 6.0 0.0 0 12
- 0.151493 4 3 ack 40 ------- 0 6.0 0.0 0 12
+ 0.1525 1 2 cbr 210 ------- 0 1.0 7.0 14 16
- 0.1525 1 2 cbr 210 ------- 0 1.0 7.0 14 16
r 0.1528 2 3 cbr 210 ------- 0 1.0 7.0 8 9
+ 0.1528 3 5 cbr 210 ------- 0 1.0 7.0 8 9
- 0.1528 3 5 cbr 210 ------- 0 1.0 7.0 8 9
r 0.15293 1 2 cbr 210 ------- 0 1.0 7.0 11 13
+ 0.15293 2 3 cbr 210 ------- 0 1.0 7.0 11 13
- 0.15293 2 3 cbr 210 ------- 0 1.0 7.0 11 13
r 0.15323 3 5 cbr 210 ------- 0 1.0 7.0 5 6
+ 0.15323 5 7 cbr 210 ------- 0 1.0 7.0 5 6
- 0.15323 5 7 cbr 210 ------- 0 1.0 7.0 5 6
r 0.15366 5 7 cbr 210 ------- 0 1.0 7.0 2 3
+ 0.15625 1 2 cbr 210 ------- 0 1.0 7.0 15 17
- 0.15625 1 2 cbr 210 ------- 0 1.0 7.0 15 17
r 0.15655 2 3 cbr 210 ------- 0 1.0 7.0 9 10
+ 0.15655 3 5 cbr 210 ------- 0 1.0 7.0 9 10
- 0.15655 3 5 cbr 210 ------- 0 1.0 7.0 9 10
r 0.15668 1 2 cbr 210 ------- 0 1.0 7.0 12 14
+ 0.15668 2 3 cbr 210 ------- 0 1.0 7.0 12 14
- 0.15668 2 3 cbr 210 ------- 0 1.0 7.0 12 14
r 0.15698 3 5 cbr 210 ------- 0 1.0 7.0 6 7
+ 0.15698 5 7 cbr 210 ------- 0 1.0 7.0 6 7
- 0.15698 5 7 cbr 210 ------- 0 1.0 7.0 6 7
r 0.15741 5 7 cbr 210 ------- 0 1.0 7.0 3 4
+ 0.16 1 2 cbr 210 ------- 0 1.0 7.0 16 18
- 0.16 1 2 cbr 210 ------- 0 1.0 7.0 16 18
r 0.1603 2 3 cbr 210 ------- 0 1.0 7.0 10 11
+ 0.1603 3 5 cbr 210 ------- 0 1.0 7.0 10 11
- 0.1603 3 5 cbr 210 ------- 0 1.0 7.0 10 11
r 0.16043 1 2 cbr 210 ------- 0 1.0 7.0 13 15
+ 0.16043 2 3 cbr 210 ------- 0 1.0 7.0 13 15
- 0.16043 2 3 cbr 210 ------- 0 1.0 7.0 13 15
r 0.16073 3 5 cbr 210 ------- 0 1.0 7.0 7 8
+ 0.16073 5 7 cbr 210 ------- 0 1.0 7.0 7 8
- 0.16073 5 7 cbr 210 ------- 0 1.0 7.0 7 8
r 0.16116 5 7 cbr 210 ------- 0 1.0 7.0 4 5
r 0.161813 4 3 ack 40 ------- 0 6.0 0.0 0 12
+ 0.161813 3 2 ack 40 ------- 0 6.0 0.0 0 12
- 0.161813 3 2 ack 40 ------- 0 6.0 0.0 0 12
+ 0.16375 1 2 cbr 210 ------- 0 1.0 7.0 17 19
- 0.16375 1 2 cbr 210 ------- 0 1.0 7.0 17 19
r 0.16405 2 3 cbr 210 ------- 0 1.0 7.0 11 13
+ 0.16405 3 5 cbr 210 ------- 0 1.0 7.0 11 13
- 0.16405 3 5 cbr 210 ------- 0 1.0 7.0 11 13
r 0.16418 1 2 cbr 210 ------- 0 1.0 7.0 14 16
+ 0.16418 2 3 cbr 210 ------- 0 1.0 7.0 14 16
- 0.16418 2 3 cbr 210 ------- 0 1.0 7.0 14 16
r 0.16448 3 5 cbr 210 ------- 0 1.0 7.0 8 9
+ 0.16448 5 7 cbr 210 ------- 0 1.0 7.0 8 9
- 0.16448 5 7 cbr 210 ------- 0 1.0 7.0 8 9
r 0.16491 5 7 cbr 210 ------- 0 1.0 7.0 5 6
+ 0.1675 1 2 cbr 210 ------- 0 1.0 7.0 18 20
- 0.1675 1 2 cbr 210 ------- 0 1.0 7.0 18 20
r 0.1678 2 3 cbr 210 ------- 0 1.0 7.0 12 14
+ 0.1678 3 5 cbr 210 ------- 0 1.0 7.0 12 14
- 0.1678 3 5 cbr 210 ------- 0 1.0 7.0 12 14
r 0.16793 1 2 cbr 210 ------- 0 1.0 7.0 15 17
+ 0.16793 2 3 cbr 210 ------- 0 1.0 7.0 15 17
- 0.16793 2 3 cbr 210 ------- 0 1.0 7.0 15 17
r 0.16823 3 5 cbr 210 ------- 0 1.0 7.0 9 10
+ 0.16823 5 7 cbr 210 ------- 0 1.0 7.0 9 10
- 0.16823 5 7 cbr 210 ------- 0 1.0 7.0 9 10
r 0.16866 5 7 cbr 210 ------- 0 1.0 7.0 6 7
+ 0.17125 1 2 cbr 210 ------- 0 1.0 7.0 19 21
- 0.17125 1 2 cbr 210 ------- 0 1.0 7.0 19 21
r 0.17155 2 3 cbr 210 ------- 0 1.0 7.0 13 15
+ 0.17155 3 5 cbr 210 ------- 0 1.0 7.0 13 15
- 0.17155 3 5 cbr 210 ------- 0 1.0 7.0 13 15
r 0.17168 1 2 cbr 210 ------- 0 1.0 7.0 16 18
+ 0.17168 2 3 cbr 210 ------- 0 1.0 7.0 16 18
- 0.17168 2 3 cbr 210 ------- 0 1.0 7.0 16 18
r 0.17198 3 5 cbr 210 ------- 0 1.0 7.0 10 11
+ 0.17198 5 7 cbr 210 ------- 0 1.0 7.0 10 11
- 0.17198 5 7 cbr 210 ------- 0 1.0 7.0 10 11
r 0.172027 3 2 ack 40 ------- 0 6.0 0.0 0 12
+ 0.172027 2 0 ack 40 ------- 0 6.0 0.0 0 12
- 0.172027 2 0 ack 40 ------- 0 6.0 0.0 0 12
r 0.17241 5 7 cbr 210 ------- 0 1.0 7.0 7 8
+ 0.175 1 2 cbr 210 ------- 0 1.0 7.0 20 22
- 0.175 1 2 cbr 210 ------- 0 1.0 7.0 20 22
r 0.1753 2 3 cbr 210 ------- 0 1.0 7.0 14 16
+ 0.1753 3 5 cbr 210 ------- 0 1.0 7.0 14 16
- 0.1753 3 5 cbr 210 ------- 0 1.0 7.0 14 16
r 0.17543 1 2 cbr 210 ------- 0 1.0 7.0 17 19
+ 0.17543 2 3 cbr 210 ------- 0 1.0 7.0 17 19
- 0.17543 2 3 cbr 210 ------- 0 1.0 7.0 17 19
r 0.17573 3 5 cbr 210 ------- 0 1.0 7.0 11 13
+ 0.17573 5 7 cbr 210 ------- 0 1.0 7.0 11 13
- 0.17573 5 7 cbr 210 ------- 0 1.0 7.0 11 13
r 0.17616 5 7 cbr 210 ------- 0 1.0 7.0 8 9
+ 0.17875 1 2 cbr 210 ------- 0 1.0 7.0 21 23
- 0.17875 1 2 cbr 210 ------- 0 1.0 7.0 21 23
r 0.17905 2 3 cbr 210 ------- 0 1.0 7.0 15 17
+ 0.17905 3 5 cbr 210 ------- 0 1.0 7.0 15 17
- 0.17905 3 5 cbr 210 ------- 0 1.0 7.0 15 17
r 0.17918 1 2 cbr 210 ------- 0 1.0 7.0 18 20
+ 0.17918 2 3 cbr 210 ------- 0 1.0 7.0 18 20
- 0.17918 2 3 cbr 210 ------- 0 1.0 7.0 18 20
r 0.17948 3 5 cbr 210 ------- 0 1.0 7.0 12 14
+ 0.17948 5 7 cbr 210 ------- 0 1.0 7.0 12 14
- 0.17948 5 7 cbr 210 ------- 0 1.0 7.0 12 14
r 0.17991 5 7 cbr 210 ------- 0 1.0 7.0 9 10
r 0.182347 2 0 ack 40 ------- 0 6.0 0.0 0 12
+ 0.182347 0 2 tcp 1040 ------- 0 0.0 6.0 1 24
- 0.182347 0 2 tcp 1040 ------- 0 0.0 6.0 1 24
+ 0.182347 0 2 tcp 1040 ------- 0 0.0 6.0 2 25
+ 0.1825 1 2 cbr 210 ------- 0 1.0 7.0 22 26
- 0.1825 1 2 cbr 210 ------- 0 1.0 7.0 22 26
r 0.1828 2 3 cbr 210 ------- 0 1.0 7.0 16 18
+ 0.1828 3 5 cbr 210 ------- 0 1.0 7.0 16 18
- 0.1828 3 5 cbr 210 ------- 0 1.0 7.0 16 18
r 0.18293 1 2 cbr 210 ------- 0 1.0 7.0 19 21
+ 0.18293 2 3 cbr 210 ------- 0 1.0 7.0 19 21
- 0.18293 2 3 cbr 210 ------- 0 1.0 7.0 19 21
r 0.18323 3 5 cbr 210 ------- 0 1.0 7.0 13 15
+ 0.18323 5 7 cbr 210 ------- 0 1.0 7.0 13 15
- 0.18323 5 7 cbr 210 ------- 0 1.0 7.0 13 15
r 0.18366 5 7 cbr 210 ------- 0 1.0 7.0 10 11
+ 0.18625 1 2 cbr 210 ------- 0 1.0 7.0 23 27
- 0.18625 1 2 cbr 210 ------- 0 1.0 7.0 23 27
r 0.18655 2 3 cbr 210 ------- 0 1.0 7.0 17 19
+ 0.18655 3 5 cbr 210 ------- 0 1.0 7.0 17 19
- 0.18655 3 5 cbr 210 ------- 0 1.0 7.0 17 19
r 0.18668 1 2 cbr 210 ------- 0 1.0 7.0 20 22
+ 0.18668 2 3 cbr 210 ------- 0 1.0 7.0 20 22
- 0.18668 2 3 cbr 210 ------- 0 1.0 7.0 20 22
r 0.18698 3 5 cbr 210 ------- 0 1.0 7.0 14 16
+ 0.18698 5 7 cbr 210 ------- 0 1.0 7.0 14 16
- 0.18698 5 7 cbr 210 ------- 0 1.0 7.0 14 16
r 0.18741 5 7 cbr 210 ------- 0 1.0 7.0 11 13
+ 0.19 1 2 cbr 210 ------- 0 1.0 7.0 24 28
- 0.19 1 2 cbr 210 ------- 0 1.0 7.0 24 28
r 0.1903 2 3 cbr 210 ------- 0 1.0 7.0 18 20
+ 0.1903 3 5 cbr 210 ------- 0 1.0 7.0 18 20
- 0.1903 3 5 cbr 210 ------- 0 1.0 7.0 18 20
r 0.19043 1 2 cbr 210 ------- 0 1.0 7.0 21 23
+ 0.19043 2 3 cbr 210 ------- 0 1.0 7.0 21 23
- 0.19043 2 3 cbr 210 ------- 0 1.0 7.0 21 23
- 0.190667 0 2 tcp 1040 ------- 0 0.0 6.0 2 25
r 0.19073 3 5 cbr 210 ------- 0 1.0 7.0 15 17
+ 0.19073 5 7 cbr 210 ------- 0 1.0 7.0 15 17
- 0.19073 5 7 cbr 210 ------- 0 1.0 7.0 15 17
r 0.19116 5 7 cbr 210 ------- 0 1.0 7.0 12 14
+ 0.19375 1 2 cbr 210 ------- 0 1.0 7.0 25 29
- 0.19375 1 2 cbr 210 ------- 0 1.0 7.0 25 29
r 0.19405 2 3 cbr 210 ------- 0 1.0 7.0 19 21
+ 0.19405 3 5 cbr 210 ------- 0 1.0 7.0 19 21
- 0.19405 3 5 cbr 210 ------- 0 1.0 7.0 19 21
r 0.19418 1 2 cbr 210 ------- 0 1.0 7.0 22 26
+ 0.19418 2 3 cbr 210 ------- 0 1.0 7.0 22 26
- 0.19418 2 3 cbr 210 ------- 0 1.0 7.0 22 26
r 0.19448 3 5 cbr 210 ------- 0 1.0 7.0 16 18
+ 0.19448 5 7 cbr 210 ------- 0 1.0 7.0 16 18
- 0.19448 5 7 cbr 210 ------- 0 1.0 7.0 16 18
r 0.19491 5 7 cbr 210 ------- 0 1.0 7.0 13 15
+ 0.1975 1 2 cbr 210 ------- 0 1.0 7.0 26 30
- 0.1975 1 2 cbr 210 ------- 0 1.0 7.0 26 30
r 0.1978 2 3 cbr 210 ------- 0 1.0 7.0 20 22
+ 0.1978 3 5 cbr 210 ------- 0 1.0 7.0 20 22
- 0.1978 3 5 cbr 210 ------- 0 1.0 7.0 20 22
r 0.19793 1 2 cbr 210 ------- 0 1.0 7.0 23 27
+ 0.19793 2 3 cbr 210 ------- 0 1.0 7.0 23 27
- 0.19793 2 3 cbr 210 ------- 0 1.0 7.0 23 27
r 0.19823 3 5 cbr 210 ------- 0 1.0 7.0 17 19
+ 0.19823 5 7 cbr 210 ------- 0 1.0 7.0 17 19
- 0.19823 5 7 cbr 210 ------- 0 1.0 7.0 17 19
r 0.19866 5 7 cbr 210 ------- 0 1.0 7.0 14 16
r 0.200667 0 2 tcp 1040 ------- 0 0.0 6.0 1 24
+ 0.200667 2 3 tcp 1040 ------- 0 0.0 6.0 1 24
- 0.200667 2 3 tcp 1040 ------- 0 0.0 6.0 1 24
+ 0.20125 1 2 cbr 210 ------- 0 1.0 7.0 27 31
- 0.20125 1 2 cbr 210 ------- 0 1.0 7.0 27 31
r 0.20155 2 3 cbr 210 ------- 0 1.0 7.0 21 23
+ 0.20155 3 5 cbr 210 ------- 0 1.0 7.0 21 23
- 0.20155 3 5 cbr 210 ------- 0 1.0 7.0 21 23
r 0.20168 1 2 cbr 210 ------- 0 1.0 7.0 24 28
+ 0.20168 2 3 cbr 210 ------- 0 1.0 7.0 24 28
r 0.20198 3 5 cbr 210 ------- 0 1.0 7.0 18 20
+ 0.20198 5 7 cbr 210 ------- 0 1.0 7.0 18 20
- 0.20198 5 7 cbr 210 ------- 0 1.0 7.0 18 20
r 0.20241 5 7 cbr 210 ------- 0 1.0 7.0 15 17
+ 0.205 1 2 cbr 210 ------- 0 1.0 7.0 28 32
- 0.205 1 2 cbr 210 ------- 0 1.0 7.0 28 32
r 0.2053 2 3 cbr 210 ------- 0 1.0 7.0 22 26
+ 0.2053 3 5 cbr 210 ------- 0 1.0 7.0 22 26
- 0.2053 3 5 cbr 210 ------- 0 1.0 7.0 22 26
r 0.20543 1 2 cbr 210 ------- 0 1.0 7.0 25 29
+ 0.20543 2 3 cbr 210 ------- 0 1.0 7.0 25 29
r 0.20573 3 5 cbr 210 ------- 0 1.0 7.0 19 21
+ 0.20573 5 7 cbr 210 ------- 0 1.0 7.0 19 21
- 0.20573 5 7 cbr 210 ------- 0 1.0 7.0 19 21
r 0.20616 5 7 cbr 210 ------- 0 1.0 7.0 16 18
- 0.206213 2 3 cbr 210 ------- 0 1.0 7.0 24 28
- 0.207333 2 3 cbr 210 ------- 0 1.0 7.0 25 29
+ 0.20875 1 2 cbr 210 ------- 0 1.0 7.0 29 33
- 0.20875 1 2 cbr 210 ------- 0 1.0 7.0 29 33
r 0.208987 0 2 tcp 1040 ------- 0 0.0 6.0 2 25
+ 0.208987 2 3 tcp 1040 ------- 0 0.0 6.0 2 25
- 0.208987 2 3 tcp 1040 ------- 0 0.0 6.0 2 25
r 0.20905 2 3 cbr 210 ------- 0 1.0 7.0 23 27
+ 0.20905 3 5 cbr 210 ------- 0 1.0 7.0 23 27
- 0.20905 3 5 cbr 210 ------- 0 1.0 7.0 23 27
r 0.20918 1 2 cbr 210 ------- 0 1.0 7.0 26 30
+ 0.20918 2 3 cbr 210 ------- 0 1.0 7.0 26 30
r 0.20948 3 5 cbr 210 ------- 0 1.0 7.0 20 22
+ 0.20948 5 7 cbr 210 ------- 0 1.0 7.0 20 22
- 0.20948 5 7 cbr 210 ------- 0 1.0 7.0 20 22
r 0.20991 5 7 cbr 210 ------- 0 1.0 7.0 17 19
+ 0.2125 1 2 cbr 210 ------- 0 1.0 7.0 30 34
- 0.2125 1 2 cbr 210 ------- 0 1.0 7.0 30 34
r 0.21293 1 2 cbr 210 ------- 0 1.0 7.0 27 31
+ 0.21293 2 3 cbr 210 ------- 0 1.0 7.0 27 31
r 0.21323 3 5 cbr 210 ------- 0 1.0 7.0 21 23
+ 0.21323 5 7 cbr 210 ------- 0 1.0 7.0 21 23
- 0.21323 5 7 cbr 210 ------- 0 1.0 7.0 21 23
r 0.21366 5 7 cbr 210 ------- 0 1.0 7.0 18 20
- 0.214533 2 3 cbr 210 ------- 0 1.0 7.0 26 30
- 0.215653 2 3 cbr 210 ------- 0 1.0 7.0 27 31
r 0.216213 2 3 tcp 1040 ------- 0 0.0 6.0 1 24
+ 0.216213 3 4 tcp 1040 ------- 0 0.0 6.0 1 24
- 0.216213 3 4 tcp 1040 ------- 0 0.0 6.0 1 24
+ 0.21625 1 2 cbr 210 ------- 0 1.0 7.0 31 35
- 0.21625 1 2 cbr 210 ------- 0 1.0 7.0 31 35
r 0.21668 1 2 cbr 210 ------- 0 1.0 7.0 28 32
+ 0.21668 2 3 cbr 210 ------- 0 1.0 7.0 28 32
- 0.216773 2 3 cbr 210 ------- 0 1.0 7.0 28 32
r 0.21698 3 5 cbr 210 ------- 0 1.0 7.0 22 26
+ 0.21698 5 7 cbr 210 ------- 0 1.0 7.0 22 26
- 0.21698 5 7 cbr 210 ------- 0 1.0 7.0 22 26
r 0.217333 2 3 cbr 210 ------- 0 1.0 7.0 24 28
+ 0.217333 3 5 cbr 210 ------- 0 1.0 7.0 24 28
- 0.217333 3 5 cbr 210 ------- 0 1.0 7.0 24 28
r 0.21741 5 7 cbr 210 ------- 0 1.0 7.0 19 21
r 0.218453 2 3 cbr 210 ------- 0 1.0 7.0 25 29
+ 0.218453 3 5 cbr 210 ------- 0 1.0 7.0 25 29
- 0.219013 3 5 cbr 210 ------- 0 1.0 7.0 25 29
+ 0.22 1 2 cbr 210 ------- 0 1.0 7.0 32 36
- 0.22 1 2 cbr 210 ------- 0 1.0 7.0 32 36
r 0.22043 1 2 cbr 210 ------- 0 1.0 7.0 29 33
+ 0.22043 2 3 cbr 210 ------- 0 1.0 7.0 29 33
- 0.22043 2 3 cbr 210 ------- 0 1.0 7.0 29 33
r 0.22073 3 5 cbr 210 ------- 0 1.0 7.0 23 27
+ 0.22073 5 7 cbr 210 ------- 0 1.0 7.0 23 27
- 0.22073 5 7 cbr 210 ------- 0 1.0 7.0 23 27
r 0.22116 5 7 cbr 210 ------- 0 1.0 7.0 20 22
+ 0.22375 1 2 cbr 210 ------- 0 1.0 7.0 33 37
- 0.22375 1 2 cbr 210 ------- 0 1.0 7.0 33 37
r 0.22418 1 2 cbr 210 ------- 0 1.0 7.0 30 34
+ 0.22418 2 3 cbr 210 ------- 0 1.0 7.0 30 34
- 0.22418 2 3 cbr 210 ------- 0 1.0 7.0 30 34
r 0.224533 2 3 tcp 1040 ------- 0 0.0 6.0 2 25
+ 0.224533 3 4 tcp 1040 ------- 0 0.0 6.0 2 25
- 0.224533 3 4 tcp 1040 ------- 0 0.0 6.0 2 25
r 0.22491 5 7 cbr 210 ------- 0 1.0 7.0 21 23
r 0.225653 2 3 cbr 210 ------- 0 1.0 7.0 26 30
+ 0.225653 3 5 cbr 210 ------- 0 1.0 7.0 26 30
- 0.225653 3 5 cbr 210 ------- 0 1.0 7.0 26 30
r 0.226773 2 3 cbr 210 ------- 0 1.0 7.0 27 31
+ 0.226773 3 5 cbr 210 ------- 0 1.0 7.0 27 31
- 0.227333 3 5 cbr 210 ------- 0 1.0 7.0 27 31
+ 0.2275 1 2 cbr 210 ------- 0 1.0 7.0 34 38
- 0.2275 1 2 cbr 210 ------- 0 1.0 7.0 34 38
r 0.227893 2 3 cbr 210 ------- 0 1.0 7.0 28 32
+ 0.227893 3 5 cbr 210 ------- 0 1.0 7.0 28 32
r 0.22793 1 2 cbr 210 ------- 0 1.0 7.0 31 35
+ 0.22793 2 3 cbr 210 ------- 0 1.0 7.0 31 35
- 0.22793 2 3 cbr 210 ------- 0 1.0 7.0 31 35
r 0.22866 5 7 cbr 210 ------- 0 1.0 7.0 22 26
- 0.229013 3 5 cbr 210 ------- 0 1.0 7.0 28 32
r 0.229013 3 5 cbr 210 ------- 0 1.0 7.0 24 28
+ 0.229013 5 7 cbr 210 ------- 0 1.0 7.0 24 28
- 0.229013 5 7 cbr 210 ------- 0 1.0 7.0 24 28
r 0.230693 3 5 cbr 210 ------- 0 1.0 7.0 25 29
+ 0.230693 5 7 cbr 210 ------- 0 1.0 7.0 25 29
- 0.230693 5 7 cbr 210 ------- 0 1.0 7.0 25 29
+ 0.23125 1 2 cbr 210 ------- 0 1.0 7.0 35 39
- 0.23125 1 2 cbr 210 ------- 0 1.0 7.0 35 39
r 0.23155 2 3 cbr 210 ------- 0 1.0 7.0 29 33
+ 0.23155 3 5 cbr 210 ------- 0 1.0 7.0 29 33
- 0.23155 3 5 cbr 210 ------- 0 1.0 7.0 29 33
r 0.23168 1 2 cbr 210 ------- 0 1.0 7.0 32 36
+ 0.23168 2 3 cbr 210 ------- 0 1.0 7.0 32 36
- 0.23168 2 3 cbr 210 ------- 0 1.0 7.0 32 36
r 0.23241 5 7 cbr 210 ------- 0 1.0 7.0 23 27
r 0.234533 3 4 tcp 1040 ------- 0 0.0 6.0 1 24
+ 0.234533 4 6 tcp 1040 ------- 0 0.0 6.0 1 24
- 0.234533 4 6 tcp 1040 ------- 0 0.0 6.0 1 24
+ 0.235 1 2 cbr 210 ------- 0 1.0 7.0 36 40
- 0.235 1 2 cbr 210 ------- 0 1.0 7.0 36 40
r 0.2353 2 3 cbr 210 ------- 0 1.0 7.0 30 34
+ 0.2353 3 5 cbr 210 ------- 0 1.0 7.0 30 34
- 0.2353 3 5 cbr 210 ------- 0 1.0 7.0 30 34
r 0.23543 1 2 cbr 210 ------- 0 1.0 7.0 33 37
+ 0.23543 2 3 cbr 210 ------- 0 1.0 7.0 33 37
- 0.23543 2 3 cbr 210 ------- 0 1.0 7.0 33 37
r 0.237333 3 5 cbr 210 ------- 0 1.0 7.0 26 30
+ 0.237333 5 7 cbr 210 ------- 0 1.0 7.0 26 30
- 0.237333 5 7 cbr 210 ------- 0 1.0 7.0 26 30
+ 0.23875 1 2 cbr 210 ------- 0 1.0 7.0 37 41
- 0.23875 1 2 cbr 210 ------- 0 1.0 7.0 37 41
r 0.239013 3 5 cbr 210 ------- 0 1.0 7.0 27 31
+ 0.239013 5 7 cbr 210 ------- 0 1.0 7.0 27 31
- 0.239013 5 7 cbr 210 ------- 0 1.0 7.0 27 31
r 0.23905 2 3 cbr 210 ------- 0 1.0 7.0 31 35
+ 0.23905 3 5 cbr 210 ------- 0 1.0 7.0 31 35
- 0.23905 3 5 cbr 210 ------- 0 1.0 7.0 31 35
r 0.23918 1 2 cbr 210 ------- 0 1.0 7.0 34 38
+ 0.23918 2 3 cbr 210 ------- 0 1.0 7.0 34 38
- 0.23918 2 3 cbr 210 ------- 0 1.0 7.0 34 38
r 0.240693 3 5 cbr 210 ------- 0 1.0 7.0 28 32
+ 0.240693 5 7 cbr 210 ------- 0 1.0 7.0 28 32
- 0.240693 5 7 cbr 210 ------- 0 1.0 7.0 28 32
r 0.240693 5 7 cbr 210 ------- 0 1.0 7.0 24 28
r 0.242373 5 7 cbr 210 ------- 0 1.0 7.0 25 29
+ 0.2425 1 2 cbr 210 ------- 0 1.0 7.0 38 42
- 0.2425 1 2 cbr 210 ------- 0 1.0 7.0 38 42
r 0.2428 2 3 cbr 210 ------- 0 1.0 7.0 32 36
+ 0.2428 3 5 cbr 210 ------- 0 1.0 7.0 32 36
- 0.2428 3 5 cbr 210 ------- 0 1.0 7.0 32 36
r 0.242853 3 4 tcp 1040 ------- 0 0.0 6.0 2 25
+ 0.242853 4 6 tcp 1040 ------- 0 0.0 6.0 2 25
- 0.242853 4 6 tcp 1040 ------- 0 0.0 6.0 2 25
r 0.24293 1 2 cbr 210 ------- 0 1.0 7.0 35 39
+ 0.24293 2 3 cbr 210 ------- 0 1.0 7.0 35 39
- 0.24293 2 3 cbr 210 ------- 0 1.0 7.0 35 39
r 0.24323 3 5 cbr 210 ------- 0 1.0 7.0 29 33
+ 0.24323 5 7 cbr 210 ------- 0 1.0 7.0 29 33
- 0.24323 5 7 cbr 210 ------- 0 1.0 7.0 29 33
+ 0.24625 1 2 cbr 210 ------- 0 1.0 7.0 39 43
- 0.24625 1 2 cbr 210 ------- 0 1.0 7.0 39 43
r 0.24655 2 3 cbr 210 ------- 0 1.0 7.0 33 37
+ 0.24655 3 5 cbr 210 ------- 0 1.0 7.0 33 37
- 0.24655 3 5 cbr 210 ------- 0 1.0 7.0 33 37
r 0.24668 1 2 cbr 210 ------- 0 1.0 7.0 36 40
+ 0.24668 2 3 cbr 210 ------- 0 1.0 7.0 36 40
- 0.24668 2 3 cbr 210 ------- 0 1.0 7.0 36 40
r 0.24698 3 5 cbr 210 ------- 0 1.0 7.0 30 34
+ 0.24698 5 7 cbr 210 ------- 0 1.0 7.0 30 34
- 0.24698 5 7 cbr 210 ------- 0 1.0 7.0 30 34
r 0.249013 5 7 cbr 210 ------- 0 1.0 7.0 26 30
+ 0.25 1 2 cbr 210 ------- 0 1.0 7.0 40 44
- 0.25 1 2 cbr 210 ------- 0 1.0 7.0 40 44
r 0.2503 2 3 cbr 210 ------- 0 1.0 7.0 34 38
+ 0.2503 3 5 cbr 210 ------- 0 1.0 7.0 34 38
- 0.2503 3 5 cbr 210 ------- 0 1.0 7.0 34 38
r 0.25043 1 2 cbr 210 ------- 0 1.0 7.0 37 41
+ 0.25043 2 3 cbr 210 ------- 0 1.0 7.0 37 41
- 0.25043 2 3 cbr 210 ------- 0 1.0 7.0 37 41
r 0.250693 5 7 cbr 210 ------- 0 1.0 7.0 27 31
r 0.25073 3 5 cbr 210 ------- 0 1.0 7.0 31 35
+ 0.25073 5 7 cbr 210 ------- 0 1.0 7.0 31 35
- 0.25073 5 7 cbr 210 ------- 0 1.0 7.0 31 35
r 0.252373 5 7 cbr 210 ------- 0 1.0 7.0 28 32
r 0.252853 4 6 tcp 1040 ------- 0 0.0 6.0 1 24
+ 0.252853 6 4 ack 40 ------- 0 6.0 0.0 1 45
- 0.252853 6 4 ack 40 ------- 0 6.0 0.0 1 45
+ 0.25375 1 2 cbr 210 ------- 0 1.0 7.0 41 46
- 0.25375 1 2 cbr 210 ------- 0 1.0 7.0 41 46
r 0.25405 2 3 cbr 210 ------- 0 1.0 7.0 35 39
+ 0.25405 3 5 cbr 210 ------- 0 1.0 7.0 35 39
- 0.25405 3 5 cbr 210 ------- 0 1.0 7.0 35 39
r 0.25418 1 2 cbr 210 ------- 0 1.0 7.0 38 42
+ 0.25418 2 3 cbr 210 ------- 0 1.0 7.0 38 42
- 0.25418 2 3 cbr 210 ------- 0 1.0 7.0 38 42
r 0.25448 3 5 cbr 210 ------- 0 1.0 7.0 32 36
+ 0.25448 5 7 cbr 210 ------- 0 1.0 7.0 32 36
- 0.25448 5 7 cbr 210 ------- 0 1.0 7.0 32 36
r 0.25491 5 7 cbr 210 ------- 0 1.0 7.0 29 33
+ 0.2575 1 2 cbr 210 ------- 0 1.0 7.0 42 47
- 0.2575 1 2 cbr 210 ------- 0 1.0 7.0 42 47
r 0.2578 2 3 cbr 210 ------- 0 1.0 7.0 36 40
+ 0.2578 3 5 cbr 210 ------- 0 1.0 7.0 36 40
- 0.2578 3 5 cbr 210 ------- 0 1.0 7.0 36 40
r 0.25793 1 2 cbr 210 ------- 0 1.0 7.0 39 43
+ 0.25793 2 3 cbr 210 ------- 0 1.0 7.0 39 43
- 0.25793 2 3 cbr 210 ------- 0 1.0 7.0 39 43
r 0.25823 3 5 cbr 210 ------- 0 1.0 7.0 33 37
+ 0.25823 5 7 cbr 210 ------- 0 1.0 7.0 33 37
- 0.25823 5 7 cbr 210 ------- 0 1.0 7.0 33 37
r 0.25866 5 7 cbr 210 ------- 0 1.0 7.0 30 34
r 0.261173 4 6 tcp 1040 ------- 0 0.0 6.0 2 25
+ 0.261173 6 4 ack 40 ------- 0 6.0 0.0 2 48
- 0.261173 6 4 ack 40 ------- 0 6.0 0.0 2 48
+ 0.26125 1 2 cbr 210 ------- 0 1.0 7.0 43 49
- 0.26125 1 2 cbr 210 ------- 0 1.0 7.0 43 49
r 0.26155 2 3 cbr 210 ------- 0 1.0 7.0 37 41
+ 0.26155 3 5 cbr 210 ------- 0 1.0 7.0 37 41
- 0.26155 3 5 cbr 210 ------- 0 1.0 7.0 37 41
r 0.26168 1 2 cbr 210 ------- 0 1.0 7.0 40 44
+ 0.26168 2 3 cbr 210 ------- 0 1.0 7.0 40 44
- 0.26168 2 3 cbr 210 ------- 0 1.0 7.0 40 44
r 0.26198 3 5 cbr 210 ------- 0 1.0 7.0 34 38
+ 0.26198 5 7 cbr 210 ------- 0 1.0 7.0 34 38
- 0.26198 5 7 cbr 210 ------- 0 1.0 7.0 34 38
r 0.26241 5 7 cbr 210 ------- 0 1.0 7.0 31 35
r 0.263173 6 4 ack 40 ------- 0 6.0 0.0 1 45
+ 0.263173 4 3 ack 40 ------- 0 6.0 0.0 1 45
- 0.263173 4 3 ack 40 ------- 0 6.0 0.0 1 45
+ 0.265 1 2 cbr 210 ------- 0 1.0 7.0 44 50
- 0.265 1 2 cbr 210 ------- 0 1.0 7.0 44 50
r 0.2653 2 3 cbr 210 ------- 0 1.0 7.0 38 42
+ 0.2653 3 5 cbr 210 ------- 0 1.0 7.0 38 42
- 0.2653 3 5 cbr 210 ------- 0 1.0 7.0 38 42
r 0.26543 1 2 cbr 210 ------- 0 1.0 7.0 41 46
+ 0.26543 2 3 cbr 210 ------- 0 1.0 7.0 41 46
- 0.26543 2 3 cbr 210 ------- 0 1.0 7.0 41 46
r 0.26573 3 5 cbr 210 ------- 0 1.0 7.0 35 39
+ 0.26573 5 7 cbr 210 ------- 0 1.0 7.0 35 39
- 0.26573 5 7 cbr 210 ------- 0 1.0 7.0 35 39
r 0.26616 5 7 cbr 210 ------- 0 1.0 7.0 32 36
+ 0.26875 1 2 cbr 210 ------- 0 1.0 7.0 45 51
- 0.26875 1 2 cbr 210 ------- 0 1.0 7.0 45 51
r 0.26905 2 3 cbr 210 ------- 0 1.0 7.0 39 43
+ 0.26905 3 5 cbr 210 ------- 0 1.0 7.0 39 43
- 0.26905 3 5 cbr 210 ------- 0 1.0 7.0 39 43
r 0.26918 1 2 cbr 210 ------- 0 1.0 7.0 42 47
+ 0.26918 2 3 cbr 210 ------- 0 1.0 7.0 42 47
- 0.26918 2 3 cbr 210 ------- 0 1.0 7.0 42 47
r 0.26948 3 5 cbr 210 ------- 0 1.0 7.0 36 40
+ 0.26948 5 7 cbr 210 ------- 0 1.0 7.0 36 40
- 0.26948 5 7 cbr 210 ------- 0 1.0 7.0 36 40
r 0.26991 5 7 cbr 210 ------- 0 1.0 7.0 33 37
r 0.271493 6 4 ack 40 ------- 0 6.0 0.0 2 48
+ 0.271493 4 3 ack 40 ------- 0 6.0 0.0 2 48
- 0.271493 4 3 ack 40 ------- 0 6.0 0.0 2 48
+ 0.2725 1 2 cbr 210 ------- 0 1.0 7.0 46 52
- 0.2725 1 2 cbr 210 ------- 0 1.0 7.0 46 52
r 0.2728 2 3 cbr 210 ------- 0 1.0 7.0 40 44
+ 0.2728 3 5 cbr 210 ------- 0 1.0 7.0 40 44
- 0.2728 3 5 cbr 210 ------- 0 1.0 7.0 40 44
r 0.27293 1 2 cbr 210 ------- 0 1.0 7.0 43 49
+ 0.27293 2 3 cbr 210 ------- 0 1.0 7.0 43 49
- 0.27293 2 3 cbr 210 ------- 0 1.0 7.0 43 49
r 0.27323 3 5 cbr 210 ------- 0 1.0 7.0 37 41
+ 0.27323 5 7 cbr 210 ------- 0 1.0 7.0 37 41
- 0.27323 5 7 cbr 210 ------- 0 1.0 7.0 37 41
r 0.273493 4 3 ack 40 ------- 0 6.0 0.0 1 45
+ 0.273493 3 2 ack 40 ------- 0 6.0 0.0 1 45
- 0.273493 3 2 ack 40 ------- 0 6.0 0.0 1 45
r 0.27366 5 7 cbr 210 ------- 0 1.0 7.0 34 38
+ 0.27625 1 2 cbr 210 ------- 0 1.0 7.0 47 53
- 0.27625 1 2 cbr 210 ------- 0 1.0 7.0 47 53
r 0.27655 2 3 cbr 210 ------- 0 1.0 7.0 41 46
+ 0.27655 3 5 cbr 210 ------- 0 1.0 7.0 41 46
- 0.27655 3 5 cbr 210 ------- 0 1.0 7.0 41 46
r 0.27668 1 2 cbr 210 ------- 0 1.0 7.0 44 50
+ 0.27668 2 3 cbr 210 ------- 0 1.0 7.0 44 50
- 0.27668 2 3 cbr 210 ------- 0 1.0 7.0 44 50
r 0.27698 3 5 cbr 210 ------- 0 1.0 7.0 38 42
+ 0.27698 5 7 cbr 210 ------- 0 1.0 7.0 38 42
- 0.27698 5 7 cbr 210 ------- 0 1.0 7.0 38 42
r 0.27741 5 7 cbr 210 ------- 0 1.0 7.0 35 39
+ 0.28 1 2 cbr 210 ------- 0 1.0 7.0 48 54
- 0.28 1 2 cbr 210 ------- 0 1.0 7.0 48 54
r 0.2803 2 3 cbr 210 ------- 0 1.0 7.0 42 47
+ 0.2803 3 5 cbr 210 ------- 0 1.0 7.0 42 47
- 0.2803 3 5 cbr 210 ------- 0 1.0 7.0 42 47
r 0.28043 1 2 cbr 210 ------- 0 1.0 7.0 45 51
+ 0.28043 2 3 cbr 210 ------- 0 1.0 7.0 45 51
- 0.28043 2 3 cbr 210 ------- 0 1.0 7.0 45 51
r 0.28073 3 5 cbr 210 ------- 0 1.0 7.0 39 43
+ 0.28073 5 7 cbr 210 ------- 0 1.0 7.0 39 43
- 0.28073 5 7 cbr 210 ------- 0 1.0 7.0 39 43
r 0.28116 5 7 cbr 210 ------- 0 1.0 7.0 36 40
r 0.281813 4 3 ack 40 ------- 0 6.0 0.0 2 48
+ 0.281813 3 2 ack 40 ------- 0 6.0 0.0 2 48
- 0.281813 3 2 ack 40 ------- 0 6.0 0.0 2 48
r 0.283707 3 2 ack 40 ------- 0 6.0 0.0 1 45
+ 0.283707 2 0 ack 40 ------- 0 6.0 0.0 1 45
- 0.283707 2 0 ack 40 ------- 0 6.0 0.0 1 45
+ 0.28375 1 2 cbr 210 ------- 0 1.0 7.0 49 55
- 0.28375 1 2 cbr 210 ------- 0 1.0 7.0 49 55
r 0.28405 2 3 cbr 210 ------- 0 1.0 7.0 43 49
+ 0.28405 3 5 cbr 210 ------- 0 1.0 7.0 43 49
- 0.28405 3 5 cbr 210 ------- 0 1.0 7.0 43 49
r 0.28418 1 2 cbr 210 ------- 0 1.0 7.0 46 52
+ 0.28418 2 3 cbr 210 ------- 0 1.0 7.0 46 52
- 0.28418 2 3 cbr 210 ------- 0 1.0 7.0 46 52
r 0.28448 3 5 cbr 210 ------- 0 1.0 7.0 40 44
+ 0.28448 5 7 cbr 210 ------- 0 1.0 7.0 40 44
- 0.28448 5 7 cbr 210 ------- 0 1.0 7.0 40 44
r 0.28491 5 7 cbr 210 ------- 0 1.0 7.0 37 41
+ 0.2875 1 2 cbr 210 ------- 0 1.0 7.0 50 56
- 0.2875 1 2 cbr 210 ------- 0 1.0 7.0 50 56
r 0.2878 2 3 cbr 210 ------- 0 1.0 7.0 44 50
+ 0.2878 3 5 cbr 210 ------- 0 1.0 7.0 44 50
- 0.2878 3 5 cbr 210 ------- 0 1.0 7.0 44 50
r 0.28793 1 2 cbr 210 ------- 0 1.0 7.0 47 53
+ 0.28793 2 3 cbr 210 ------- 0 1.0 7.0 47 53
- 0.28793 2 3 cbr 210 ------- 0 1.0 7.0 47 53
r 0.28823 3 5 cbr 210 ------- 0 1.0 7.0 41 46
+ 0.28823 5 7 cbr 210 ------- 0 1.0 7.0 41 46
- 0.28823 5 7 cbr 210 ------- 0 1.0 7.0 41 46
r 0.28866 5 7 cbr 210 ------- 0 1.0 7.0 38 42
+ 0.29125 1 2 cbr 210 ------- 0 1.0 7.0 51 57
- 0.29125 1 2 cbr 210 ------- 0 1.0 7.0 51 57
r 0.29155 2 3 cbr 210 ------- 0 1.0 7.0 45 51
+ 0.29155 3 5 cbr 210 ------- 0 1.0 7.0 45 51
- 0.29155 3 5 cbr 210 ------- 0 1.0 7.0 45 51
r 0.29168 1 2 cbr 210 ------- 0 1.0 7.0 48 54
+ 0.29168 2 3 cbr 210 ------- 0 1.0 7.0 48 54
- 0.29168 2 3 cbr 210 ------- 0 1.0 7.0 48 54
r 0.29198 3 5 cbr 210 ------- 0 1.0 7.0 42 47
+ 0.29198 5 7 cbr 210 ------- 0 1.0 7.0 42 47
- 0.29198 5 7 cbr 210 ------- 0 1.0 7.0 42 47
r 0.292027 3 2 ack 40 ------- 0 6.0 0.0 2 48
+ 0.292027 2 0 ack 40 ------- 0 6.0 0.0 2 48
- 0.292027 2 0 ack 40 ------- 0 6.0 0.0 2 48
r 0.29241 5 7 cbr 210 ------- 0 1.0 7.0 39 43
r 0.294027 2 0 ack 40 ------- 0 6.0 0.0 1 45
+ 0.294027 0 2 tcp 1040 ------- 0 0.0 6.0 3 58
- 0.294027 0 2 tcp 1040 ------- 0 0.0 6.0 3 58
+ 0.294027 0 2 tcp 1040 ------- 0 0.0 6.0 4 59
+ 0.295 1 2 cbr 210 ------- 0 1.0 7.0 52 60
- 0.295 1 2 cbr 210 ------- 0 1.0 7.0 52 60
r 0.2953 2 3 cbr 210 ------- 0 1.0 7.0 46 52
+ 0.2953 3 5 cbr 210 ------- 0 1.0 7.0 46 52
- 0.2953 3 5 cbr 210 ------- 0 1.0 7.0 46 52
r 0.29543 1 2 cbr 210 ------- 0 1.0 7.0 49 55
+ 0.29543 2 3 cbr 210 ------- 0 1.0 7.0 49 55
- 0.29543 2 3 cbr 210 ------- 0 1.0 7.0 49 55
r 0.29573 3 5 cbr 210 ------- 0 1.0 7.0 43 49
+ 0.29573 5 7 cbr 210 ------- 0 1.0 7.0 43 49
- 0.29573 5 7 cbr 210 ------- 0 1.0 7.0 43 49
r 0.29616 5 7 cbr 210 ------- 0 1.0 7.0 40 44
+ 0.29875 1 2 cbr 210 ------- 0 1.0 7.0 53 61
- 0.29875 1 2 cbr 210 ------- 0 1.0 7.0 53 61
r 0.29905 2 3 cbr 210 ------- 0 1.0 7.0 47 53
+ 0.29905 3 5 cbr 210 ------- 0 1.0 7.0 47 53
- 0.29905 3 5 cbr 210 ------- 0 1.0 7.0 47 53
r 0.29918 1 2 cbr 210 ------- 0 1.0 7.0 50 56
+ 0.29918 2 3 cbr 210 ------- 0 1.0 7.0 50 56
- 0.29918 2 3 cbr 210 ------- 0 1.0 7.0 50 56
r 0.29948 3 5 cbr 210 ------- 0 1.0 7.0 44 50
+ 0.29948 5 7 cbr 210 ------- 0 1.0 7.0 44 50
- 0.29948 5 7 cbr 210 ------- 0 1.0 7.0 44 50
r 0.29991 5 7 cbr 210 ------- 0 1.0 7.0 41 46
r 0.302347 2 0 ack 40 ------- 0 6.0 0.0 2 48
+ 0.302347 0 2 tcp 1040 ------- 0 0.0 6.0 5 62
+ 0.302347 0 2 tcp 1040 ------- 0 0.0 6.0 6 63
- 0.302347 0 2 tcp 1040 ------- 0 0.0 6.0 4 59