+ 0.1 0 2 tcp 40 ------- 0 0.0 6.0 0 0
- 0.1 0 2 tcp 40 ------- 0 0.0 6.0 0 0
+ 0.1 1 2 cbr 210 ------- 0 1.0 7.0 0 1
- 0.1 1 2 cbr 210 ------- 0 1.0 7.0 0 1
+ 0.10375 1 2 cbr 210 ------- 0 1.0 7.0 1 2
- 0.10375 1 2 cbr 210 ------- 0 1.0 7.0 1 2
+ 0.1075 1 2 cbr 210 ------- 0 1.0 7.0 2 3
- 0.1075 1 2 cbr 210 ------- 0 1.0 7.0 2 3
r 0.11032 0 2 tcp 40 ------- 0 0.0 6.0 0 0
+ 0.11032 2 3 tcp 40 ------- 0 0.0 6.0 0 0
- 0.11032 2 3 tcp 40 ------- 0 0.0 6.0 0 0
+ 0.11125 1 2 cbr 210 ------- 0 1.0 7.0 3 4
- 0.11125 1 2 cbr 210 ------- 0 1.0 7.0 3 4
r 0.11168 1 2 cbr 210 ------- 0 1.0 7.0 0 1
+ 0.11168 2 3 cbr 210 ------- 0 1.0 7.0 0 1
- 0.11168 2 3 cbr 210 ------- 0 1.0 7.0 0 1
+ 0.115 1 2 cbr 210 ------- 0 1.0 7.0 4 5
- 0.115 1 2 cbr 210 ------- 0 1.0 7.0 4 5
r 0.11543 1 2 cbr 210 ------- 0 1.0 7.0 1 2
+ 0.11543 2 3 cbr 210 ------- 0 1.0 7.0 1 2
- 0.11543 2 3 cbr 210 ------- 0 1.0 7.0 1 2
+ 0.11875 1 2 cbr 210 ------- 0 1.0 7.0 5 6
- 0.11875 1 2 cbr 210 ------- 0 1.0 7.0 5 6
r 0.11918 1 2 cbr 210 ------- 0 1.0 7.0 2 3
+ 0.11918 2 3 cbr 210 ------- 0 1.0 7.0 2 3
- 0.11918 2 3 cbr 210 ------- 0 1.0 7.0 2 3
r 0.12048 2 3 tcp 40 ------- 0 0.0 6.0 0 0
+ 0.12048 3 4 tcp 40 ------- 0 0.0 6.0 0 0
- 0.12048 3 4 tcp 40 ------- 0 0.0 6.0 0 0
+ 0.1225 1 2 cbr 210 ------- 0 1.0 7.0 6 7
- 0.1225 1 2 cbr 210 ------- 0 1.0 7.0 6 7
r 0.12252 2 3 cbr 210 ------- 0 1.0 7.0 0 1
+ 0.12252 3 5 cbr 210 ------- 0 1.0 7.0 0 1
- 0.12252 3 5 cbr 210 ------- 0 1.0 7.0 0 1
r 0.12293 1 2 cbr 210 ------- 0 1.0 7.0 3 4
+ 0.12293 2 3 cbr 210 ------- 0 1.0 7.0 3 4
- 0.12293 2 3 cbr 210 ------- 0 1.0 7.0 3 4
+ 0.12625 1 2 cbr 210 ------- 0 1.0 7.0 7 8
- 0.12625 1 2 cbr 210 ------- 0 1.0 7.0 7 8
r 0.12627 2 3 cbr 210 ------- 0 1.0 7.0 1 2
+ 0.12627 3 5 cbr 210 ------- 0 1.0 7.0 1 2
- 0.12627 3 5 cbr 210 ------- 0 1.0 7.0 1 2
r 0.12668 1 2 cbr 210 ------- 0 1.0 7.0 4 5
+ 0.12668 2 3 cbr 210 ------- 0 1.0 7.0 4 5
- 0.12668 2 3 cbr 210 ------- 0 1.0 7.0 4 5
+ 0.13 1 2 cbr 210 ------- 0 1.0 7.0 8 9
- 0.13 1 2 cbr 210 ------- 0 1.0 7.0 8 9
r 0.13002 2 3 cbr 210 ------- 0 1.0 7.0 2 3
+ 0.13002 3 5 cbr 210 ------- 0 1.0 7.0 2 3
- 0.13002 3 5 cbr 210 ------- 0 1.0 7.0 2 3
r 0.13043 1 2 cbr 210 ------- 0 1.0 7.0 5 6
+ 0.13043 2 3 cbr 210 ------- 0 1.0 7.0 5 6
- 0.13043 2 3 cbr 210 ------- 0 1.0 7.0 5 6
r 0.1308 3 4 tcp 40 ------- 0 0.0 6.0 0 0
+ 0.1308 4 6 tcp 40 ------- 0 0.0 6.0 0 0
- 0.1308 4 6 tcp 40 ------- 0 0.0 6.0 0 0
+ 0.13375 1 2 cbr 210 ------- 0 1.0 7.0 9 10
- 0.13375 1 2 cbr 210 ------- 0 1.0 7.0 9 10
r 0.13377 2 3 cbr 210 ------- 0 1.0 7.0 3 4
+ 0.13377 3 5 cbr 210 ------- 0 1.0 7.0 3 4
- 0.13377 3 5 cbr 210 ------- 0 1.0 7.0 3 4
r 0.13418 1 2 cbr 210 ------- 0 1.0 7.0 6 7
+ 0.13418 2 3 cbr 210 ------- 0 1.0 7.0 6 7
- 0.13418 2 3 cbr 210 ------- 0 1.0 7.0 6 7
r 0.1342 3 5 cbr 210 ------- 0 1.0 7.0 0 1
+ 0.1342 5 7 cbr 210 ------- 0 1.0 7.0 0 1
- 0.1342 5 7 cbr 210 ------- 0 1.0 7.0 0 1
+ 0.1375 1 2 cbr 210 ------- 0 1.0 7.0 10 11
- 0.1375 1 2 cbr 210 ------- 0 1.0 7.0 10 11
r 0.13752 2 3 cbr 210 ------- 0 1.0 7.0 4 5
+ 0.13752 3 5 cbr 210 ------- 0 1.0 7.0 4 5
- 0.13752 3 5 cbr 210 ------- 0 1.0 7.0 4 5
r 0.13793 1 2 cbr 210 ------- 0 1.0 7.0 7 8
+ 0.13793 2 3 cbr 210 ------- 0 1.0 7.0 7 8
- 0.13793 2 3 cbr 210 ------- 0 1.0 7.0 7 8
r 0.13795 3 5 cbr 210 ------- 0 1.0 7.0 1 2
+ 0.13795 5 7 cbr 210 ------- 0 1.0 7.0 1 2
- 0.13795 5 7 cbr 210 ------- 0 1.0 7.0 1 2
r 0.14112 4 6 tcp 40 ------- 0 0.0 6.0 0 0
+ 0.14112 6 4 ack 40 ------- 0 6.0 0.0 0 12
- 0.14112 6 4 ack 40 ------- 0 6.0 0.0 0 12
+ 0.14125 1 2 cbr 210 ------- 0 1.0 7.0 11 13
- 0.14125 1 2 cbr 210 ------- 0 1.0 7.0 11 13
r 0.14127 2 3 cbr 210 ------- 0 1.0 7.0 5 6
+ 0.14127 3 5 cbr 210 ------- 0 1.0 7.0 5 6
- 0.14127 3 5 cbr 210 ------- 0 1.0 7.0 5 6
r 0.14168 1 2 cbr 210 ------- 0 1.0 7.0 8 9
+ 0.14168 2 3 cbr 210 ------- 0 1.0 7.0 8 9
- 0.14168 2 3 cbr 210 ------- 0 1.0 7.0 8 9
r 0.1417 3 5 cbr 210 ------- 0 1.0 7.0 2 3
+ 0.1417 5 7 cbr 210 ------- 0 1.0 7.0 2 3
- 0.1417 5 7 cbr 210 ------- 0 1.0 7.0 2 3
+ 0.145 1 2 cbr 210 ------- 0 1.0 7.0 12 14
- 0.145 1 2 cbr 210 ------- 0 1.0 7.0 12 14
r 0.14502 2 3 cbr 210 ------- 0 1.0 7.0 6 7
+ 0.14502 3 5 cbr 210 ------- 0 1.0 7.0 6 7
- 0.14502 3 5 cbr 210 ------- 0 1.0 7.0 6 7
r 0.14543 1 2 cbr 210 ------- 0 1.0 7.0 9 10
+ 0.14543 2 3 cbr 210 ------- 0 1.0 7.0 9 10
- 0.14543 2 3 cbr 210 ------- 0 1.0 7.0 9 10
r 0.14545 3 5 cbr 210 ------- 0 1.0 7.0 3 4
+ 0.14545 5 7 cbr 210 ------- 0 1.0 7.0 3 4
- 0.14545 5 7 cbr 210 ------- 0 1.0 7.0 3 4
r 0.14588 5 7 cbr 210 ------- 0 1.0 7.0 0 1
+ 0.14875 1 2 cbr 210 ------- 0 1.0 7.0 13 15
- 0.14875 1 2 cbr 210 ------- 0 1.0 7.0 13 15
r 0.14877 2 3 cbr 210 ------- 0 1.0 7.0 7 8
+ 0.14877 3 5 cbr 210 ------- 0 1.0 7.0 7 8
- 0.14877 3 5 cbr 210 ------- 0 1.0 7.0 7 8
r 0.14918 1 2 cbr 210 ------- 0 1.0 7.0 10 11
+ 0.14918 2 3 cbr 210 ------- 0 1.0 7.0 10 11
- 0.14918 2 3 cbr 210 ------- 0 1.0 7.0 10 11
r 0.1492 3 5 cbr 210 ------- 0 1.0 7.0 4 5
+ 0.1492 5 7 cbr 210 ------- 0 1.0 7.0 4 5
- 0.1492 5 7 cbr 210 ------- 0 1.0 7.0 4 5
r 0.14963 5 7 cbr 210 ------- 0 1.0 7.0 1 2
r 0.15144 6 4 ack 40 ------- 0 6.0 0.0 0 12
+ 0.15144 4 3 ack 40 ------- 0 6.0 0.0 0 12
- 0.15144 4 3 ack 40 ------- 0 6.0 0.0 0 12
+ 0.1525 1 2 cbr 210 ------- 0 1.0 7.0 14 16
- 0.1525 1 2 cbr 210 ------- 0 1.0 7.0 14 16
r 0.15252 2 3 cbr 210 ------- 0 1.0 7.0 8 9
+ 0.15252 3 5 cbr 210 ------- 0 1.0 7.0 8 9
- 0.15252 3 5 cbr 210 ------- 0 1.0 7.0 8 9
r 0.15293 1 2 cbr 210 ------- 0 1.0 7.0 11 13
+ 0.15293 2 3 cbr 210 ------- 0 1.0 7.0 11 13
- 0.15293 2 3 cbr 210 ------- 0 1.0 7.0 11 13
r 0.15295 3 5 cbr 210 ------- 0 1.0 7.0 5 6
+ 0.15295 5 7 cbr 210 ------- 0 1.0 7.0 5 6
- 0.15295 5 7 cbr 210 ------- 0 1.0 7.0 5 6
r 0.15338 5 7 cbr 210 ------- 0 1.0 7.0 2 3
+ 0.15625 1 2 cbr 210 ------- 0 1.0 7.0 15 17
- 0.15625 1 2 cbr 210 ------- 0 1.0 7.0 15 17
r 0.15627 2 3 cbr 210 ------- 0 1.0 7.0 9 10
+ 0.15627 3 5 cbr 210 ------- 0 1.0 7.0 9 10
- 0.15627 3 5 cbr 210 ------- 0 1.0 7.0 9 10
r 0.15668 1 2 cbr 210 ------- 0 1.0 7.0 12 14
+ 0.15668 2 3 cbr 210 ------- 0 1.0 7.0 12 14
- 0.15668 2 3 cbr 210 ------- 0 1.0 7.0 12 14
r 0.1567 3 5 cbr 210 ------- 0 1.0 7.0 6 7
+ 0.1567 5 7 cbr 210 ------- 0 1.0 7.0 6 7
- 0.1567 5 7 cbr 210 ------- 0 1.0 7.0 6 7
r 0.15713 5 7 cbr 210 ------- 0 1.0 7.0 3 4
+ 0.16 1 2 cbr 210 ------- 0 1.0 7.0 16 18
- 0.16 1 2 cbr 210 ------- 0 1.0 7.0 16 18
r 0.16002 2 3 cbr 210 ------- 0 1.0 7.0 10 11
+ 0.16002 3 5 cbr 210 ------- 0 1.0 7.0 10 11
- 0.16002 3 5 cbr 210 ------- 0 1.0 7.0 10 11
r 0.16043 1 2 cbr 210 ------- 0 1.0 7.0 13 15
+ 0.16043 2 3 cbr 210 ------- 0 1.0 7.0 13 15
- 0.16043 2 3 cbr 210 ------- 0 1.0 7.0 13 15
r 0.16045 3 5 cbr 210 ------- 0 1.0 7.0 7 8
+ 0.16045 5 7 cbr 210 ------- 0 1.0 7.0 7 8
- 0.16045 5 7 cbr 210 ------- 0 1.0 7.0 7 8
r 0.16088 5 7 cbr 210 ------- 0 1.0 7.0 4 5
r 0.16176 4 3 ack 40 ------- 0 6.0 0.0 0 12
+ 0.16176 3 2 ack 40 ------- 0 6.0 0.0 0 12
- 0.16176 3 2 ack 40 ------- 0 6.0 0.0 0 12
+ 0.16375 1 2 cbr 210 ------- 0 1.0 7.0 17 19
- 0.16375 1 2 cbr 210 ------- 0 1.0 7.0 17 19
r 0.16377 2 3 cbr 210 ------- 0 1.0 7.0 11 13
+ 0.16377 3 5 cbr 210 ------- 0 1.0 7.0 11 13
- 0.16377 3 5 cbr 210 ------- 0 1.0 7.0 11 13
r 0.16418 1 2 cbr 210 ------- 0 1.0 7.0 14 16
+ 0.16418 2 3 cbr 210 ------- 0 1.0 7.0 14 16
- 0.16418 2 3 cbr 210 ------- 0 1.0 7.0 14 16
r 0.1642 3 5 cbr 210 ------- 0 1.0 7.0 8 9
+ 0.1642 5 7 cbr 210 ------- 0 1.0 7.0 8 9
- 0.1642 5 7 cbr 210 ------- 0 1.0 7.0 8 9
r 0.16463 5 7 cbr 210 ------- 0 1.0 7.0 5 6
+ 0.1675 1 2 cbr 210 ------- 0 1.0 7.0 18 20
- 0.1675 1 2 cbr 210 ------- 0 1.0 7.0 18 20
r 0.16752 2 3 cbr 210 ------- 0 1.0 7.0 12 14
+ 0.16752 3 5 cbr 210 ------- 0 1.0 7.0 12 14
- 0.16752 3 5 cbr 210 ------- 0 1.0 7.0 12 14
r 0.16793 1 2 cbr 210 ------- 0 1.0 7.0 15 17
+ 0.16793 2 3 cbr 210 ------- 0 1.0 7.0 15 17
- 0.16793 2 3 cbr 210 ------- 0 1.0 7.0 15 17
r 0.16795 3 5 cbr 210 ------- 0 1.0 7.0 9 10
+ 0.16795 5 7 cbr 210 ------- 0 1.0 7.0 9 10
- 0.16795 5 7 cbr 210 ------- 0 1.0 7.0 9 10
r 0.16838 5 7 cbr 210 ------- 0 1.0 7.0 6 7
+ 0.17125 1 2 cbr 210 ------- 0 1.0 7.0 19 21
- 0.17125 1 2 cbr 210 ------- 0 1.0 7.0 19 21
r 0.17127 2 3 cbr 210 ------- 0 1.0 7.0 13 15
+ 0.17127 3 5 cbr 210 ------- 0 1.0 7.0 13 15
- 0.17127 3 5 cbr 210 ------- 0 1.0 7.0 13 15
r 0.17168 1 2 cbr 210 ------- 0 1.0 7.0 16 18
+ 0.17168 2 3 cbr 210 ------- 0 1.0 7.0 16 18
- 0.17168 2 3 cbr 210 ------- 0 1.0 7.0 16 18
r 0.1717 3 5 cbr 210 ------- 0 1.0 7.0 10 11
+ 0.1717 5 7 cbr 210 ------- 0 1.0 7.0 10 11
- 0.1717 5 7 cbr 210 ------- 0 1.0 7.0 10 11
r 0.17192 3 2 ack 40 ------- 0 6.0 0.0 0 12
+ 0.17192 2 0 ack 40 ------- 0 6.0 0.0 0 12
- 0.17192 2 0 ack 40 ------- 0 6.0 0.0 0 12
r 0.17213 5 7 cbr 210 ------- 0 1.0 7.0 7 8
+ 0.175 1 2 cbr 210 ------- 0 1.0 7.0 20 22
- 0.175 1 2 cbr 210 ------- 0 1.0 7.0 20 22
r 0.17502 2 3 cbr 210 ------- 0 1.0 7.0 14 16
+ 0.17502 3 5 cbr 210 ------- 0 1.0 7.0 14 16
- 0.17502 3 5 cbr 210 ------- 0 1.0 7.0 14 16
r 0.17543 1 2 cbr 210 ------- 0 1.0 7.0 17 19
+ 0.17543 2 3 cbr 210 ------- 0 1.0 7.0 17 19
- 0.17543 2 3 cbr 210 ------- 0 1.0 7.0 17 19
r 0.17545 3 5 cbr 210 ------- 0 1.0 7.0 11 13
+ 0.17545 5 7 cbr 210 ------- 0 1.0 7.0 11 13
- 0.17545 5 7 cbr 210 ------- 0 1.0 7.0 11 13
r 0.17588 5 7 cbr 210 ------- 0 1.0 7.0 8 9
+ 0.17875 1 2 cbr 210 ------- 0 1.0 7.0 21 23
- 0.17875 1 2 cbr 210 ------- 0 1.0 7.0 21 23
r 0.17877 2 3 cbr 210 ------- 0 1.0 7.0 15 17
+ 0.17877 3 5 cbr 210 ------- 0 1.0 7.0 15 17
- 0.17877 3 5 cbr 210 ------- 0 1.0 7.0 15 17
r 0.17918 1 2 cbr 210 ------- 0 1.0 7.0 18 20
+ 0.17918 2 3 cbr 210 ------- 0 1.0 7.0 18 20
- 0.17918 2 3 cbr 210 ------- 0 1.0 7.0 18 20
r 0.1792 3 5 cbr 210 ------- 0 1.0 7.0 12 14
+ 0.1792 5 7 cbr 210 ------- 0 1.0 7.0 12 14
- 0.1792 5 7 cbr 210 ------- 0 1.0 7.0 12 14
r 0.17963 5 7 cbr 210 ------- 0 1.0 7.0 9 10
r 0.18224 2 0 ack 40 ------- 0 6.0 0.0 0 12
+ 0.18224 0 2 tcp 1040 ------- 0 0.0 6.0 1 24
- 0.18224 0 2 tcp 1040 ------- 0 0.0 6.0 1 24
+ 0.18224 0 2 tcp 1040 ------- 0 0.0 6.0 2 25
+ 0.1825 1 2 cbr 210 ------- 0 1.0 7.0 22 26
- 0.1825 1 2 cbr 210 ------- 0 1.0 7.0 22 26
r 0.18252 2 3 cbr 210 ------- 0 1.0 7.0 16 18
+ 0.18252 3 5 cbr 210 ------- 0 1.0 7.0 16 18
- 0.18252 3 5 cbr 210 ------- 0 1.0 7.0 16 18
r 0.18293 1 2 cbr 210 ------- 0 1.0 7.0 19 21
+ 0.18293 2 3 cbr 210 ------- 0 1.0 7.0 19 21
- 0.18293 2 3 cbr 210 ------- 0 1.0 7.0 19 21
r 0.18295 3 5 cbr 210 ------- 0 1.0 7.0 13 15
+ 0.18295 5 7 cbr 210 ------- 0 1.0 7.0 13 15
- 0.18295 5 7 cbr 210 ------- 0 1.0 7.0 13 15
r 0.18338 5 7 cbr 210 ------- 0 1.0 7.0 10 11
+ 0.18625 1 2 cbr 210 ------- 0 1.0 7.0 23 27
- 0.18625 1 2 cbr 210 ------- 0 1.0 7.0 23 27
r 0.18627 2 3 cbr 210 ------- 0 1.0 7.0 17 19
+ 0.18627 3 5 cbr 210 ------- 0 1.0 7.0 17 19
- 0.18627 3 5 cbr 210 ------- 0 1.0 7.0 17 19
r 0.18668 1 2 cbr 210 ------- 0 1.0 7.0 20 22
+ 0.18668 2 3 cbr 210 ------- 0 1.0 7.0 20 22
- 0.18668 2 3 cbr 210 ------- 0 1.0 7.0 20 22
r 0.1867 3 5 cbr 210 ------- 0 1.0 7.0 14 16
+ 0.1867 5 7 cbr 210 ------- 0 1.0 7.0 14 16
- 0.1867 5 7 cbr 210 ------- 0 1.0 7.0 14 16
r 0.18713 5 7 cbr 210 ------- 0 1.0 7.0 11 13
+ 0.19 1 2 cbr 210 ------- 0 1.0 7.0 24 28
- 0.19 1 2 cbr 210 ------- 0 1.0 7.0 24 28
r 0.19002 2 3 cbr 210 ------- 0 1.0 7.0 18 20
+ 0.19002 3 5 cbr 210 ------- 0 1.0 7.0 18 20
- 0.19002 3 5 cbr 210 ------- 0 1.0 7.0 18 20
r 0.19043 1 2 cbr 210 ------- 0 1.0 7.0 21 23
+ 0.19043 2 3 cbr 210 ------- 0 1.0 7.0 21 23
- 0.19043 2 3 cbr 210 ------- 0 1.0 7.0 21 23
r 0.19045 3 5 cbr 210 ------- 0 1.0 7.0 15 17
+ 0.19045 5 7 cbr 210 ------- 0 1.0 7.0 15 17
- 0.19045 5 7 cbr 210 ------- 0 1.0 7.0 15 17
- 0.19056 0 2 tcp 1040 ------- 0 0.0 6.0 2 25
r 0.19088 5 7 cbr 210 ------- 0 1.0 7.0 12 14
+ 0.19375 1 2 cbr 210 ------- 0 1.0 7.0 25 29
- 0.19375 1 2 cbr 210 ------- 0 1.0 7.0 25 29
r 0.19377 2 3 cbr 210 ------- 0 1.0 7.0 19 21
+ 0.19377 3 5 cbr 210 ------- 0 1.0 7.0 19 21
- 0.19377 3 5 cbr 210 ------- 0 1.0 7.0 19 21
r 0.19418 1 2 cbr 210 ------- 0 1.0 7.0 22 26
+ 0.19418 2 3 cbr 210 ------- 0 1.0 7.0 22 26
- 0.19418 2 3 cbr 210 ------- 0 1.0 7.0 22 26
r 0.1942 3 5 cbr 210 ------- 0 1.0 7.0 16 18
+ 0.1942 5 7 cbr 210 ------- 0 1.0 7.0 16 18
- 0.1942 5 7 cbr 210 ------- 0 1.0 7.0 16 18
r 0.19463 5 7 cbr 210 ------- 0 1.0 7.0 13 15
+ 0.1975 1 2 cbr 210 ------- 0 1.0 7.0 26 30
- 0.1975 1 2 cbr 210 ------- 0 1.0 7.0 26 30
r 0.19752 2 3 cbr 210 ------- 0 1.0 7.0 20 22
+ 0.19752 3 5 cbr 210 ------- 0 1.0 7.0 20 22
- 0.19752 3 5 cbr 210 ------- 0 1.0 7.0 20 22
r 0.19793 1 2 cbr 210 ------- 0 1.0 7.0 23 27
+ 0.19793 2 3 cbr 210 ------- 0 1.0 7.0 23 27
- 0.19793 2 3 cbr 210 ------- 0 1.0 7.0 23 27
r 0.19795 3 5 cbr 210 ------- 0 1.0 7.0 17 19
+ 0.19795 5 7 cbr 210 ------- 0 1.0 7.0 17 19
- 0.19795 5 7 cbr 210 ------- 0 1.0 7.0 17 19
r 0.19838 5 7 cbr 210 ------- 0 1.0 7.0 14 16
r 0.20056 0 2 tcp 1040 ------- 0 0.0 6.0 1 24
+ 0.20056 2 3 tcp 1040 ------- 0 0.0 6.0 1 24
- 0.20056 2 3 tcp 1040 ------- 0 0.0 6.0 1 24
+ 0.20125 1 2 cbr 210 ------- 0 1.0 7.0 27 31
- 0.20125 1 2 cbr 210 ------- 0 1.0 7.0 27 31
r 0.20127 2 3 cbr 210 ------- 0 1.0 7.0 21 23
+ 0.20127 3 5 cbr 210 ------- 0 1.0 7.0 21 23
- 0.20127 3 5 cbr 210 ------- 0 1.0 7.0 21 23
r 0.20168 1 2 cbr 210 ------- 0 1.0 7.0 24 28
+ 0.20168 2 3 cbr 210 ------- 0 1.0 7.0 24 28
r 0.2017 3 5 cbr 210 ------- 0 1.0 7.0 18 20
+ 0.2017 5 7 cbr 210 ------- 0 1.0 7.0 18 20
- 0.2017 5 7 cbr 210 ------- 0 1.0 7.0 18 20
r 0.20213 5 7 cbr 210 ------- 0 1.0 7.0 15 17
- 0.20472 2 3 cbr 210 ------- 0 1.0 7.0 24 28
+ 0.205 1 2 cbr 210 ------- 0 1.0 7.0 28 32
- 0.205 1 2 cbr 210 ------- 0 1.0 7.0 28 32
r 0.20502 2 3 cbr 210 ------- 0 1.0 7.0 22 26
+ 0.20502 3 5 cbr 210 ------- 0 1.0 7.0 22 26
- 0.20502 3 5 cbr 210 ------- 0 1.0 7.0 22 26
r 0.20543 1 2 cbr 210 ------- 0 1.0 7.0 25 29
+ 0.20543 2 3 cbr 210 ------- 0 1.0 7.0 25 29
r 0.20545 3 5 cbr 210 ------- 0 1.0 7.0 19 21
+ 0.20545 5 7 cbr 210 ------- 0 1.0 7.0 19 21
- 0.20545 5 7 cbr 210 ------- 0 1.0 7.0 19 21
- 0.20556 2 3 cbr 210 ------- 0 1.0 7.0 25 29
r 0.20588 5 7 cbr 210 ------- 0 1.0 7.0 16 18
+ 0.20875 1 2 cbr 210 ------- 0 1.0 7.0 29 33
- 0.20875 1 2 cbr 210 ------- 0 1.0 7.0 29 33
r 0.20877 2 3 cbr 210 ------- 0 1.0 7.0 23 27
+ 0.20877 3 5 cbr 210 ------- 0 1.0 7.0 23 27
- 0.20877 3 5 cbr 210 ------- 0 1.0 7.0 23 27
r 0.20888 0 2 tcp 1040 ------- 0 0.0 6.0 2 25
+ 0.20888 2 3 tcp 1040 ------- 0 0.0 6.0 2 25
- 0.20888 2 3 tcp 1040 ------- 0 0.0 6.0 2 25
r 0.20918 1 2 cbr 210 ------- 0 1.0 7.0 26 30
+ 0.20918 2 3 cbr 210 ------- 0 1.0 7.0 26 30
r 0.2092 3 5 cbr 210 ------- 0 1.0 7.0 20 22
+ 0.2092 5 7 cbr 210 ------- 0 1.0 7.0 20 22
- 0.2092 5 7 cbr 210 ------- 0 1.0 7.0 20 22
r 0.20963 5 7 cbr 210 ------- 0 1.0 7.0 17 19
+ 0.2125 1 2 cbr 210 ------- 0 1.0 7.0 30 34
- 0.2125 1 2 cbr 210 ------- 0 1.0 7.0 30 34
r 0.21293 1 2 cbr 210 ------- 0 1.0 7.0 27 31
+ 0.21293 2 3 cbr 210 ------- 0 1.0 7.0 27 31
r 0.21295 3 5 cbr 210 ------- 0 1.0 7.0 21 23
+ 0.21295 5 7 cbr 210 ------- 0 1.0 7.0 21 23
- 0.21295 5 7 cbr 210 ------- 0 1.0 7.0 21 23
- 0.21304 2 3 cbr 210 ------- 0 1.0 7.0 26 30
r 0.21338 5 7 cbr 210 ------- 0 1.0 7.0 18 20
- 0.21388 2 3 cbr 210 ------- 0 1.0 7.0 27 31
r 0.21472 2 3 tcp 1040 ------- 0 0.0 6.0 1 24
+ 0.21472 3 4 tcp 1040 ------- 0 0.0 6.0 1 24
- 0.21472 3 4 tcp 1040 ------- 0 0.0 6.0 1 24
r 0.21556 2 3 cbr 210 ------- 0 1.0 7.0 24 28
+ 0.21556 3 5 cbr 210 ------- 0 1.0 7.0 24 28
- 0.21556 3 5 cbr 210 ------- 0 1.0 7.0 24 28
+ 0.21625 1 2 cbr 210 ------- 0 1.0 7.0 31 35
- 0.21625 1 2 cbr 210 ------- 0 1.0 7.0 31 35
r 0.2164 2 3 cbr 210 ------- 0 1.0 7.0 25 29
+ 0.2164 3 5 cbr 210 ------- 0 1.0 7.0 25 29
r 0.21668 1 2 cbr 210 ------- 0 1.0 7.0 28 32
+ 0.21668 2 3 cbr 210 ------- 0 1.0 7.0 28 32
- 0.21668 2 3 cbr 210 ------- 0 1.0 7.0 28 32
r 0.2167 3 5 cbr 210 ------- 0 1.0 7.0 22 26
+ 0.2167 5 7 cbr 210 ------- 0 1.0 7.0 22 26
- 0.2167 5 7 cbr 210 ------- 0 1.0 7.0 22 26
r 0.21713 5 7 cbr 210 ------- 0 1.0 7.0 19 21
- 0.21724 3 5 cbr 210 ------- 0 1.0 7.0 25 29
+ 0.22 1 2 cbr 210 ------- 0 1.0 7.0 32 36
- 0.22 1 2 cbr 210 ------- 0 1.0 7.0 32 36
r 0.22043 1 2 cbr 210 ------- 0 1.0 7.0 29 33
+ 0.22043 2 3 cbr 210 ------- 0 1.0 7.0 29 33
- 0.22043 2 3 cbr 210 ------- 0 1.0 7.0 29 33
r 0.22045 3 5 cbr 210 ------- 0 1.0 7.0 23 27
+ 0.22045 5 7 cbr 210 ------- 0 1.0 7.0 23 27
- 0.22045 5 7 cbr 210 ------- 0 1.0 7.0 23 27
r 0.22088 5 7 cbr 210 ------- 0 1.0 7.0 20 22
r 0.22304 2 3 tcp 1040 ------- 0 0.0 6.0 2 25
+ 0.22304 3 4 tcp 1040 ------- 0 0.0 6.0 2 25
- 0.22304 3 4 tcp 1040 ------- 0 0.0 6.0 2 25
+ 0.22375 1 2 cbr 210 ------- 0 1.0 7.0 33 37
- 0.22375 1 2 cbr 210 ------- 0 1.0 7.0 33 37
r 0.22388 2 3 cbr 210 ------- 0 1.0 7.0 26 30
+ 0.22388 3 5 cbr 210 ------- 0 1.0 7.0 26 30
- 0.22388 3 5 cbr 210 ------- 0 1.0 7.0 26 30
r 0.22418 1 2 cbr 210 ------- 0 1.0 7.0 30 34
+ 0.22418 2 3 cbr 210 ------- 0 1.0 7.0 30 34
- 0.22418 2 3 cbr 210 ------- 0 1.0 7.0 30 34
r 0.22463 5 7 cbr 210 ------- 0 1.0 7.0 21 23
r 0.22472 2 3 cbr 210 ------- 0 1.0 7.0 27 31
+ 0.22472 3 5 cbr 210 ------- 0 1.0 7.0 27 31
- 0.22556 3 5 cbr 210 ------- 0 1.0 7.0 27 31
r 0.22724 3 5 cbr 210 ------- 0 1.0 7.0 24 28
+ 0.22724 5 7 cbr 210 ------- 0 1.0 7.0 24 28
- 0.22724 5 7 cbr 210 ------- 0 1.0 7.0 24 28
+ 0.2275 1 2 cbr 210 ------- 0 1.0 7.0 34 38
- 0.2275 1 2 cbr 210 ------- 0 1.0 7.0 34 38
r 0.22752 2 3 cbr 210 ------- 0 1.0 7.0 28 32
+ 0.22752 3 5 cbr 210 ------- 0 1.0 7.0 28 32
- 0.22752 3 5 cbr 210 ------- 0 1.0 7.0 28 32
r 0.22793 1 2 cbr 210 ------- 0 1.0 7.0 31 35
+ 0.22793 2 3 cbr 210 ------- 0 1.0 7.0 31 35
- 0.22793 2 3 cbr 210 ------- 0 1.0 7.0 31 35
r 0.22838 5 7 cbr 210 ------- 0 1.0 7.0 22 26
r 0.22892 3 5 cbr 210 ------- 0 1.0 7.0 25 29
+ 0.22892 5 7 cbr 210 ------- 0 1.0 7.0 25 29
- 0.22892 5 7 cbr 210 ------- 0 1.0 7.0 25 29
+ 0.23125 1 2 cbr 210 ------- 0 1.0 7.0 35 39
- 0.23125 1 2 cbr 210 ------- 0 1.0 7.0 35 39
r 0.23127 2 3 cbr 210 ------- 0 1.0 7.0 29 33
+ 0.23127 3 5 cbr 210 ------- 0 1.0 7.0 29 33
- 0.23127 3 5 cbr 210 ------- 0 1.0 7.0 29 33
r 0.23168 1 2 cbr 210 ------- 0 1.0 7.0 32 36
+ 0.23168 2 3 cbr 210 ------- 0 1.0 7.0 32 36
- 0.23168 2 3 cbr 210 ------- 0 1.0 7.0 32 36
r 0.23213 5 7 cbr 210 ------- 0 1.0 7.0 23 27
r 0.23304 3 4 tcp 1040 ------- 0 0.0 6.0 1 24
+ 0.23304 4 6 tcp 1040 ------- 0 0.0 6.0 1 24
- 0.23304 4 6 tcp 1040 ------- 0 0.0 6.0 1 24
+ 0.235 1 2 cbr 210 ------- 0 1.0 7.0 36 40
- 0.235 1 2 cbr 210 ------- 0 1.0 7.0 36 40
r 0.23502 2 3 cbr 210 ------- 0 1.0 7.0 30 34
+ 0.23502 3 5 cbr 210 ------- 0 1.0 7.0 30 34
- 0.23502 3 5 cbr 210 ------- 0 1.0 7.0 30 34
r 0.23543 1 2 cbr 210 ------- 0 1.0 7.0 33 37
+ 0.23543 2 3 cbr 210 ------- 0 1.0 7.0 33 37
- 0.23543 2 3 cbr 210 ------- 0 1.0 7.0 33 37
r 0.23556 3 5 cbr 210 ------- 0 1.0 7.0 26 30
+ 0.23556 5 7 cbr 210 ------- 0 1.0 7.0 26 30
- 0.23556 5 7 cbr 210 ------- 0 1.0 7.0 26 30
r 0.23724 3 5 cbr 210 ------- 0 1.0 7.0 27 31
+ 0.23724 5 7 cbr 210 ------- 0 1.0 7.0 27 31
- 0.23724 5 7 cbr 210 ------- 0 1.0 7.0 27 31
+ 0.23875 1 2 cbr 210 ------- 0 1.0 7.0 37 41
- 0.23875 1 2 cbr 210 ------- 0 1.0 7.0 37 41
r 0.23877 2 3 cbr 210 ------- 0 1.0 7.0 31 35
+ 0.23877 3 5 cbr 210 ------- 0 1.0 7.0 31 35
- 0.23877 3 5 cbr 210 ------- 0 1.0 7.0 31 35
r 0.23892 5 7 cbr 210 ------- 0 1.0 7.0 24 28
r 0.23918 1 2 cbr 210 ------- 0 1.0 7.0 34 38
+ 0.23918 2 3 cbr 210 ------- 0 1.0 7.0 34 38
- 0.23918 2 3 cbr 210 ------- 0 1.0 7.0 34 38
r 0.2392 3 5 cbr 210 ------- 0 1.0 7.0 28 32
+ 0.2392 5 7 cbr 210 ------- 0 1.0 7.0 28 32
- 0.2392 5 7 cbr 210 ------- 0 1.0 7.0 28 32
r 0.2406 5 7 cbr 210 ------- 0 1.0 7.0 25 29
r 0.24136 3 4 tcp 1040 ------- 0 0.0 6.0 2 25
+ 0.24136 4 6 tcp 1040 ------- 0 0.0 6.0 2 25
- 0.24136 4 6 tcp 1040 ------- 0 0.0 6.0 2 25
+ 0.2425 1 2 cbr 210 ------- 0 1.0 7.0 38 42
- 0.2425 1 2 cbr 210 ------- 0 1.0 7.0 38 42
r 0.24252 2 3 cbr 210 ------- 0 1.0 7.0 32 36
+ 0.24252 3 5 cbr 210 ------- 0 1.0 7.0 32 36
- 0.24252 3 5 cbr 210 ------- 0 1.0 7.0 32 36
r 0.24293 1 2 cbr 210 ------- 0 1.0 7.0 35 39
+ 0.24293 2 3 cbr 210 ------- 0 1.0 7.0 35 39
- 0.24293 2 3 cbr 210 ------- 0 1.0 7.0 35 39
r 0.24295 3 5 cbr 210 ------- 0 1.0 7.0 29 33
+ 0.24295 5 7 cbr 210 ------- 0 1.0 7.0 29 33
- 0.24295 5 7 cbr 210 ------- 0 1.0 7.0 29 33
+ 0.24625 1 2 cbr 210 ------- 0 1.0 7.0 39 43
- 0.24625 1 2 cbr 210 ------- 0 1.0 7.0 39 43
r 0.24627 2 3 cbr 210 ------- 0 1.0 7.0 33 37
+ 0.24627 3 5 cbr 210 ------- 0 1.0 7.0 33 37
- 0.24627 3 5 cbr 210 ------- 0 1.0 7.0 33 37
r 0.24668 1 2 cbr 210 ------- 0 1.0 7.0 36 40
+ 0.24668 2 3 cbr 210 ------- 0 1.0 7.0 36 40
- 0.24668 2 3 cbr 210 ------- 0 1.0 7.0 36 40
r 0.2467 3 5 cbr 210 ------- 0 1.0 7.0 30 34
+ 0.2467 5 7 cbr 210 ------- 0 1.0 7.0 30 34
- 0.2467 5 7 cbr 210 ------- 0 1.0 7.0 30 34
r 0.24724 5 7 cbr 210 ------- 0 1.0 7.0 26 30
r 0.24892 5 7 cbr 210 ------- 0 1.0 7.0 27 31
+ 0.25 1 2 cbr 210 ------- 0 1.0 7.0 40 44
- 0.25 1 2 cbr 210 ------- 0 1.0 7.0 40 44
r 0.25002 2 3 cbr 210 ------- 0 1.0 7.0 34 38
+ 0.25002 3 5 cbr 210 ------- 0 1.0 7.0 34 38
- 0.25002 3 5 cbr 210 ------- 0 1.0 7.0 34 38
r 0.25043 1 2 cbr 210 ------- 0 1.0 7.0 37 41
+ 0.25043 2 3 cbr 210 ------- 0 1.0 7.0 37 41
- 0.25043 2 3 cbr 210 ------- 0 1.0 7.0 37 41
r 0.25045 3 5 cbr 210 ------- 0 1.0 7.0 31 35
+ 0.25045 5 7 cbr 210 ------- 0 1.0 7.0 31 35
- 0.25045 5 7 cbr 210 ------- 0 1.0 7.0 31 35
r 0.25088 5 7 cbr 210 ------- 0 1.0 7.0 28 32
r 0.25136 4 6 tcp 1040 ------- 0 0.0 6.0 1 24
+ 0.25136 6 4 ack 40 ------- 0 6.0 0.0 1 45
- 0.25136 6 4 ack 40 ------- 0 6.0 0.0 1 45
+ 0.25375 1 2 cbr 210 ------- 0 1.0 7.0 41 46
- 0.25375 1 2 cbr 210 ------- 0 1.0 7.0 41 46
r 0.25377 2 3 cbr 210 ------- 0 1.0 7.0 35 39
+ 0.25377 3 5 cbr 210 ------- 0 1.0 7.0 35 39
- 0.25377 3 5 cbr 210 ------- 0 1.0 7.0 35 39
r 0.25418 1 2 cbr 210 ------- 0 1.0 7.0 38 42
+ 0.25418 2 3 cbr 210 ------- 0 1.0 7.0 38 42
- 0.25418 2 3 cbr 210 ------- 0 1.0 7.0 38 42
r 0.2542 3 5 cbr 210 ------- 0 1.0 7.0 32 36
+ 0.2542 5 7 cbr 210 ------- 0 1.0 7.0 32 36
- 0.2542 5 7 cbr 210 ------- 0 1.0 7.0 32 36
r 0.25463 5 7 cbr 210 ------- 0 1.0 7.0 29 33
+ 0.2575 1 2 cbr 210 ------- 0 1.0 7.0 42 47
- 0.2575 1 2 cbr 210 ------- 0 1.0 7.0 42 47
r 0.25752 2 3 cbr 210 ------- 0 1.0 7.0 36 40
+ 0.25752 3 5 cbr 210 ------- 0 1.0 7.0 36 40
- 0.25752 3 5 cbr 210 ------- 0 1.0 7.0 36 40
r 0.25793 1 2 cbr 210 ------- 0 1.0 7.0 39 43
+ 0.25793 2 3 cbr 210 ------- 0 1.0 7.0 39 43
- 0.25793 2 3 cbr 210 ------- 0 1.0 7.0 39 43
r 0.25795 3 5 cbr 210 ------- 0 1.0 7.0 33 37
+ 0.25795 5 7 cbr 210 ------- 0 1.0 7.0 33 37
- 0.25795 5 7 cbr 210 ------- 0 1.0 7.0 33 37
r 0.25838 5 7 cbr 210 ------- 0 1.0 7.0 30 34
r 0.25968 4 6 tcp 1040 ------- 0 0.0 6.0 2 25
+ 0.25968 6 4 ack 40 ------- 0 6.0 0.0 2 48
- 0.25968 6 4 ack 40 ------- 0 6.0 0.0 2 48
+ 0.26125 1 2 cbr 210 ------- 0 1.0 7.0 43 49
- 0.26125 1 2 cbr 210 ------- 0 1.0 7.0 43 49
r 0.26127 2 3 cbr 210 ------- 0 1.0 7.0 37 41
+ 0.26127 3 5 cbr 210 ------- 0 1.0 7.0 37 41
- 0.26127 3 5 cbr 210 ------- 0 1.0 7.0 37 41
r 0.26168 6 4 ack 40 ------- 0 6.0 0.0 1 45
+ 0.26168 4 3 ack 40 ------- 0 6.0 0.0 1 45
- 0.26168 4 3 ack 40 ------- 0 6.0 0.0 1 45
r 0.26168 1 2 cbr 210 ------- 0 1.0 7.0 40 44
+ 0.26168 2 3 cbr 210 ------- 0 1.0 7.0 40 44
- 0.26168 2 3 cbr 210 ------- 0 1.0 7.0 40 44
r 0.2617 3 5 cbr 210 ------- 0 1.0 7.0 34 38
+ 0.2617 5 7 cbr 210 ------- 0 1.0 7.0 34 38
- 0.2617 5 7 cbr 210 ------- 0 1.0 7.0 34 38
r 0.26213 5 7 cbr 210 ------- 0 1.0 7.0 31 35
+ 0.265 1 2 cbr 210 ------- 0 1.0 7.0 44 50
- 0.265 1 2 cbr 210 ------- 0 1.0 7.0 44 50
r 0.26502 2 3 cbr 210 ------- 0 1.0 7.0 38 42
+ 0.26502 3 5 cbr 210 ------- 0 1.0 7.0 38 42
- 0.26502 3 5 cbr 210 ------- 0 1.0 7.0 38 42
r 0.26543 1 2 cbr 210 ------- 0 1.0 7.0 41 46
+ 0.26543 2 3 cbr 210 ------- 0 1.0 7.0 41 46
- 0.26543 2 3 cbr 210 ------- 0 1.0 7.0 41 46
r 0.26545 3 5 cbr 210 ------- 0 1.0 7.0 35 39
+ 0.26545 5 7 cbr 210 ------- 0 1.0 7.0 35 39
- 0.26545 5 7 cbr 210 ------- 0 1.0 7.0 35 39
r 0.26588 5 7 cbr 210 ------- 0 1.0 7.0 32 36
+ 0.26875 1 2 cbr 210 ------- 0 1.0 7.0 45 51
- 0.26875 1 2 cbr 210 ------- 0 1.0 7.0 45 51
r 0.26877 2 3 cbr 210 ------- 0 1.0 7.0 39 43
+ 0.26877 3 5 cbr 210 ------- 0 1.0 7.0 39 43
- 0.26877 3 5 cbr 210 ------- 0 1.0 7.0 39 43
r 0.26918 1 2 cbr 210 ------- 0 1.0 7.0 42 47
+ 0.26918 2 3 cbr 210 ------- 0 1.0 7.0 42 47
- 0.26918 2 3 cbr 210 ------- 0 1.0 7.0 42 47
r 0.2692 3 5 cbr 210 ------- 0 1.0 7.0 36 40
+ 0.2692 5 7 cbr 210 ------- 0 1.0 7.0 36 40
- 0.2692 5 7 cbr 210 ------- 0 1.0 7.0 36 40
r 0.26963 5 7 cbr 210 ------- 0 1.0 7.0 33 37
r 0.27 6 4 ack 40 ------- 0 6.0 0.0 2 48
+ 0.27 4 3 ack 40 ------- 0 6.0 0.0 2 48
- 0.27 4 3 ack 40 ------- 0 6.0 0.0 2 48
r 0.272 4 3 ack 40 ------- 0 6.0 0.0 1 45
+ 0.272 3 2 ack 40 ------- 0 6.0 0.0 1 45
- 0.272 3 2 ack 40 ------- 0 6.0 0.0 1 45
+ 0.2725 1 2 cbr 210 ------- 0 1.0 7.0 46 52
- 0.2725 1 2 cbr 210 ------- 0 1.0 7.0 46 52
r 0.27252 2 3 cbr 210 ------- 0 1.0 7.0 40 44
+ 0.27252 3 5 cbr 210 ------- 0 1.0 7.0 40 44
- 0.27252 3 5 cbr 210 ------- 0 1.0 7.0 40 44
r 0.27293 1 2 cbr 210 ------- 0 1.0 7.0 43 49
+ 0.27293 2 3 cbr 210 ------- 0 1.0 7.0 43 49
- 0.27293 2 3 cbr 210 ------- 0 1.0 7.0 43 49
r 0.27295 3 5 cbr 210 ------- 0 1.0 7.0 37 41
+ 0.27295 5 7 cbr 210 ------- 0 1.0 7.0 37 41
- 0.27295 5 7 cbr 210 ------- 0 1.0 7.0 37 41
r 0.27338 5 7 cbr 210 ------- 0 1.0 7.0 34 38
+ 0.27625 1 2 cbr 210 ------- 0 1.0 7.0 47 53
- 0.27625 1 2 cbr 210 ------- 0 1.0 7.0 47 53
r 0.27627 2 3 cbr 210 ------- 0 1.0 7.0 41 46
+ 0.27627 3 5 cbr 210 ------- 0 1.0 7.0 41 46
- 0.27627 3 5 cbr 210 ------- 0 1.0 7.0 41 46
r 0.27668 1 2 cbr 210 ------- 0 1.0 7.0 44 50
+ 0.27668 2 3 cbr 210 ------- 0 1.0 7.0 44 50
- 0.27668 2 3 cbr 210 ------- 0 1.0 7.0 44 50
r 0.2767 3 5 cbr 210 ------- 0 1.0 7.0 38 42
+ 0.2767 5 7 cbr 210 ------- 0 1.0 7.0 38 42
- 0.2767 5 7 cbr 210 ------- 0 1.0 7.0 38 42
r 0.27713 5 7 cbr 210 ------- 0 1.0 7.0 35 39
+ 0.28 1 2 cbr 210 ------- 0 1.0 7.0 48 54
- 0.28 1 2 cbr 210 ------- 0 1.0 7.0 48 54
r 0.28002 2 3 cbr 210 ------- 0 1.0 7.0 42 47
+ 0.28002 3 5 cbr 210 ------- 0 1.0 7.0 42 47
- 0.28002 3 5 cbr 210 ------- 0 1.0 7.0 42 47
r 0.28032 4 3 ack 40 ------- 0 6.0 0.0 2 48
+ 0.28032 3 2 ack 40 ------- 0 6.0 0.0 2 48
- 0.28032 3 2 ack 40 ------- 0 6.0 0.0 2 48
r 0.28043 1 2 cbr 210 ------- 0 1.0 7.0 45 51
+ 0.28043 2 3 cbr 210 ------- 0 1.0 7.0 45 51
- 0.28043 2 3 cbr 210 ------- 0 1.0 7.0 45 51
r 0.28045 3 5 cbr 210 ------- 0 1.0 7.0 39 43
+ 0.28045 5 7 cbr 210 ------- 0 1.0 7.0 39 43
- 0.28045 5 7 cbr 210 ------- 0 1.0 7.0 39 43
r 0.28088 5 7 cbr 210 ------- 0 1.0 7.0 36 40
r 0.28216 3 2 ack 40 ------- 0 6.0 0.0 1 45
+ 0.28216 2 0 ack 40 ------- 0 6.0 0.0 1 45
- 0.28216 2 0 ack 40 ------- 0 6.0 0.0 1 45
+ 0.28375 1 2 cbr 210 ------- 0 1.0 7.0 49 55
- 0.28375 1 2 cbr 210 ------- 0 1.0 7.0 49 55
r 0.28377 2 3 cbr 210 ------- 0 1.0 7.0 43 49
+ 0.28377 3 5 cbr 210 ------- 0 1.0 7.0 43 49
- 0.28377 3 5 cbr 210 ------- 0 1.0 7.0 43 49
r 0.28418 1 2 cbr 210 ------- 0 1.0 7.0 46 52
+ 0.28418 2 3 cbr 210 ------- 0 1.0 7.0 46 52
- 0.28418 2 3 cbr 210 ------- 0 1.0 7.0 46 52
r 0.2842 3 5 cbr 210 ------- 0 1.0 7.0 40 44
+ 0.2842 5 7 cbr 210 ------- 0 1.0 7.0 40 44
- 0.2842 5 7 cbr 210 ------- 0 1.0 7.0 40 44
r 0.28463 5 7 cbr 210 ------- 0 1.0 7.0 37 41
+ 0.2875 1 2 cbr 210 ------- 0 1.0 7.0 50 56
- 0.2875 1 2 cbr 210 ------- 0 1.0 7.0 50 56
r 0.28752 2 3 cbr 210 ------- 0 1.0 7.0 44 50
+ 0.28752 3 5 cbr 210 ------- 0 1.0 7.0 44 50
- 0.28752 3 5 cbr 210 ------- 0 1.0 7.0 44 50
r 0.28793 1 2 cbr 210 ------- 0 1.0 7.0 47 53
+ 0.28793 2 3 cbr 210 ------- 0 1.0 7.0 47 53
- 0.28793 2 3 cbr 210 ------- 0 1.0 7.0 47 53
r 0.28795 3 5 cbr 210 ------- 0 1.0 7.0 41 46
+ 0.28795 5 7 cbr 210 ------- 0 1.0 7.0 41 46
- 0.28795 5 7 cbr 210 ------- 0 1.0 7.0 41 46
r 0.28838 5 7 cbr 210 ------- 0 1.0 7.0 38 42
r 0.29048 3 2 ack 40 ------- 0 6.0 0.0 2 48
+ 0.29048 2 0 ack 40 ------- 0 6.0 0.0 2 48
- 0.29048 2 0 ack 40 ------- 0 6.0 0.0 2 48
+ 0.29125 1 2 cbr 210 ------- 0 1.0 7.0 51 57
- 0.29125 1 2 cbr 210 ------- 0 1.0 7.0 51 57
r 0.29127 2 3 cbr 210 ------- 0 1.0 7.0 45 51
+ 0.29127 3 5 cbr 210 ------- 0 1.0 7.0 45 51
- 0.29127 3 5 cbr 210 ------- 0 1.0 7.0 45 51
r 0.29168 1 2 cbr 210 ------- 0 1.0 7.0 48 54
+ 0.29168 2 3 cbr 210 ------- 0 1.0 7.0 48 54
- 0.29168 2 3 cbr 210 ------- 0 1.0 7.0 48 54
r 0.2917 3 5 cbr 210 ------- 0 1.0 7.0 42 47
+ 0.2917 5 7 cbr 210 ------- 0 1.0 7.0 42 47
- 0.2917 5 7 cbr 210 ------- 0 1.0 7.0 42 47
r 0.29213 5 7 cbr 210 ------- 0 1.0 7.0 39 43
r 0.29248 2 0 ack 40 ------- 0 6.0 0.0 1 45
+ 0.29248 0 2 tcp 1040 ------- 0 0.0 6.0 3 58
- 0.29248 0 2 tcp 1040 ------- 0 0.0 6.0 3 58
+ 0.29248 0 2 tcp 1040 ------- 0 0.0 6.0 4 59
+ 0.295 1 2 cbr 210 ------- 0 1.0 7.0 52 60
- 0.295 1 2 cbr 210 ------- 0 1.0 7.0 52 60
r 0.29502 2 3 cbr 210 ------- 0 1.0 7.0 46 52
+ 0.29502 3 5 cbr 210 ------- 0 1.0 7.0 46 52
- 0.29502 3 5 cbr 210 ------- 0 1.0 7.0 46 52
r 0.29543 1 2 cbr 210 ------- 0 1.0 7.0 49 55
+ 0.29543 2 3 cbr 210 ------- 0 1.0 7.0 49 55
- 0.29543 2 3 cbr 210 ------- 0 1.0 7.0 49 55
r 0.29545 3 5 cbr 210 ------- 0 1.0 7.0 43 49
+ 0.29545 5 7 cbr 210 ------- 0 1.0 7.0 43 49
- 0.29545 5 7 cbr 210 ------- 0 1.0 7.0 43 49
r 0.29588 5 7 cbr 210 ------- 0 1.0 7.0 40 44
+ 0.29875 1 2 cbr 210 ------- 0 1.0 7.0 53 61
- 0.29875 1 2 cbr 210 ------- 0 1.0 7.0 53 61
r 0.29877 2 3 cbr 210 ------- 0 1.0 7.0 47 53
+ 0.29877 3 5 cbr 210 ------- 0 1.0 7.0 47 53
- 0.29877 3 5 cbr 210 ------- 0 1.0 7.0 47 53
r 0.29918 1 2 cbr 210 ------- 0 1.0 7.0 50 56
+ 0.29918 2 3 cbr 210 ------- 0 1.0 7.0 50 56
- 0.29918 2 3 cbr 210 ------- 0 1.0 7.0 50 56
r 0.2992 3 5 cbr 210 ------- 0 1.0 7.0 44 50
+ 0.2992 5 7 cbr 210 ------- 0 1.0 7.0 44 50
- 0.2992 5 7 cbr 210 ------- 0 1.0 7.0 44 50
r 0.29963 5 7 cbr 210 ------- 0 1.0 7.0 41 46
r 0.3008 2 0 ack 40 ------- 0 6.0 0.0 2 48
+ 0.3008 0 2 tcp 1040 ------- 0 0.0 6.0 5 62
+ 0.3008 0 2 tcp 1040 ------- 0 0.0 6.0 6 63
- 0.3008 0 2 tcp 1040 ------- 0 0.0 6.0 4 59
+ 0.3025 1 2 cbr 210 ------- 0 1.0 7.0 54 64
- 0.3025 1 2 cbr 210 ------- 0 1.0 7.0 54 64
r 0.30252 2 3 cbr 210 ------- 0 1.0 7.0 48 54