+ 0.1 0 2 tcp 40 ------- 0 0.0 6.0 0 0
- 0.1 0 2 tcp 40 ------- 0 0.0 6.0 0 0
+ 0.1 1 2 cbr 210 ------- 0 1.0 7.0 0 1
- 0.1 1 2 cbr 210 ------- 0 1.0 7.0 0 1
+ 0.10375 1 2 cbr 210 ------- 0 1.0 7.0 1 2
- 0.10375 1 2 cbr 210 ------- 0 1.0 7.0 1 2
+ 0.1075 1 2 cbr 210 ------- 0 1.0 7.0 2 3
- 0.1075 1 2 cbr 210 ------- 0 1.0 7.0 2 3
r 0.11032 0 2 tcp 40 ------- 0 0.0 6.0 0 0
+ 0.11032 2 3 tcp 40 ------- 0 0.0 6.0 0 0
- 0.11032 2 3 tcp 40 ------- 0 0.0 6.0 0 0
+ 0.11125 1 2 cbr 210 ------- 0 1.0 7.0 3 4
- 0.11125 1 2 cbr 210 ------- 0 1.0 7.0 3 4
r 0.11168 1 2 cbr 210 ------- 0 1.0 7.0 0 1
+ 0.11168 2 3 cbr 210 ------- 0 1.0 7.0 0 1
- 0.11168 2 3 cbr 210 ------- 0 1.0 7.0 0 1
+ 0.115 1 2 cbr 210 ------- 0 1.0 7.0 4 5
- 0.115 1 2 cbr 210 ------- 0 1.0 7.0 4 5
r 0.11543 1 2 cbr 210 ------- 0 1.0 7.0 1 2
+ 0.11543 2 3 cbr 210 ------- 0 1.0 7.0 1 2
- 0.11543 2 3 cbr 210 ------- 0 1.0 7.0 1 2
+ 0.11875 1 2 cbr 210 ------- 0 1.0 7.0 5 6
- 0.11875 1 2 cbr 210 ------- 0 1.0 7.0 5 6
r 0.11918 1 2 cbr 210 ------- 0 1.0 7.0 2 3
+ 0.11918 2 3 cbr 210 ------- 0 1.0 7.0 2 3
- 0.11918 2 3 cbr 210 ------- 0 1.0 7.0 2 3
r 0.12064 2 3 tcp 40 ------- 0 0.0 6.0 0 0
+ 0.12064 3 4 tcp 40 ------- 0 0.0 6.0 0 0
- 0.12064 3 4 tcp 40 ------- 0 0.0 6.0 0 0
+ 0.1225 1 2 cbr 210 ------- 0 1.0 7.0 6 7
- 0.1225 1 2 cbr 210 ------- 0 1.0 7.0 6 7
r 0.12293 1 2 cbr 210 ------- 0 1.0 7.0 3 4
+ 0.12293 2 3 cbr 210 ------- 0 1.0 7.0 3 4
- 0.12293 2 3 cbr 210 ------- 0 1.0 7.0 3 4
r 0.12336 2 3 cbr 210 ------- 0 1.0 7.0 0 1
+ 0.12336 3 5 cbr 210 ------- 0 1.0 7.0 0 1
- 0.12336 3 5 cbr 210 ------- 0 1.0 7.0 0 1
+ 0.12625 1 2 cbr 210 ------- 0 1.0 7.0 7 8
- 0.12625 1 2 cbr 210 ------- 0 1.0 7.0 7 8
r 0.12668 1 2 cbr 210 ------- 0 1.0 7.0 4 5
+ 0.12668 2 3 cbr 210 ------- 0 1.0 7.0 4 5
- 0.12668 2 3 cbr 210 ------- 0 1.0 7.0 4 5
r 0.12711 2 3 cbr 210 ------- 0 1.0 7.0 1 2
+ 0.12711 3 5 cbr 210 ------- 0 1.0 7.0 1 2
- 0.12711 3 5 cbr 210 ------- 0 1.0 7.0 1 2
+ 0.13 1 2 cbr 210 ------- 0 1.0 7.0 8 9
- 0.13 1 2 cbr 210 ------- 0 1.0 7.0 8 9
r 0.13043 1 2 cbr 210 ------- 0 1.0 7.0 5 6
+ 0.13043 2 3 cbr 210 ------- 0 1.0 7.0 5 6
- 0.13043 2 3 cbr 210 ------- 0 1.0 7.0 5 6
r 0.13086 2 3 cbr 210 ------- 0 1.0 7.0 2 3
+ 0.13086 3 5 cbr 210 ------- 0 1.0 7.0 2 3
- 0.13086 3 5 cbr 210 ------- 0 1.0 7.0 2 3
r 0.13096 3 4 tcp 40 ------- 0 0.0 6.0 0 0
+ 0.13096 4 6 tcp 40 ------- 0 0.0 6.0 0 0
- 0.13096 4 6 tcp 40 ------- 0 0.0 6.0 0 0
+ 0.13375 1 2 cbr 210 ------- 0 1.0 7.0 9 10
- 0.13375 1 2 cbr 210 ------- 0 1.0 7.0 9 10
r 0.13418 1 2 cbr 210 ------- 0 1.0 7.0 6 7
+ 0.13418 2 3 cbr 210 ------- 0 1.0 7.0 6 7
- 0.13418 2 3 cbr 210 ------- 0 1.0 7.0 6 7
r 0.13461 2 3 cbr 210 ------- 0 1.0 7.0 3 4
+ 0.13461 3 5 cbr 210 ------- 0 1.0 7.0 3 4
- 0.13461 3 5 cbr 210 ------- 0 1.0 7.0 3 4
r 0.13504 3 5 cbr 210 ------- 0 1.0 7.0 0 1
+ 0.13504 5 7 cbr 210 ------- 0 1.0 7.0 0 1
- 0.13504 5 7 cbr 210 ------- 0 1.0 7.0 0 1
+ 0.1375 1 2 cbr 210 ------- 0 1.0 7.0 10 11
- 0.1375 1 2 cbr 210 ------- 0 1.0 7.0 10 11
r 0.13793 1 2 cbr 210 ------- 0 1.0 7.0 7 8
+ 0.13793 2 3 cbr 210 ------- 0 1.0 7.0 7 8
- 0.13793 2 3 cbr 210 ------- 0 1.0 7.0 7 8
r 0.13836 2 3 cbr 210 ------- 0 1.0 7.0 4 5
+ 0.13836 3 5 cbr 210 ------- 0 1.0 7.0 4 5
- 0.13836 3 5 cbr 210 ------- 0 1.0 7.0 4 5
r 0.13879 3 5 cbr 210 ------- 0 1.0 7.0 1 2
+ 0.13879 5 7 cbr 210 ------- 0 1.0 7.0 1 2
- 0.13879 5 7 cbr 210 ------- 0 1.0 7.0 1 2
+ 0.14125 1 2 cbr 210 ------- 0 1.0 7.0 11 12
- 0.14125 1 2 cbr 210 ------- 0 1.0 7.0 11 12
r 0.14128 4 6 tcp 40 ------- 0 0.0 6.0 0 0
+ 0.14128 6 4 ack 40 ------- 0 6.0 0.0 0 13
- 0.14128 6 4 ack 40 ------- 0 6.0 0.0 0 13
r 0.14168 1 2 cbr 210 ------- 0 1.0 7.0 8 9
+ 0.14168 2 3 cbr 210 ------- 0 1.0 7.0 8 9
- 0.14168 2 3 cbr 210 ------- 0 1.0 7.0 8 9
r 0.14211 2 3 cbr 210 ------- 0 1.0 7.0 5 6
+ 0.14211 3 5 cbr 210 ------- 0 1.0 7.0 5 6
- 0.14211 3 5 cbr 210 ------- 0 1.0 7.0 5 6
r 0.14254 3 5 cbr 210 ------- 0 1.0 7.0 2 3
+ 0.14254 5 7 cbr 210 ------- 0 1.0 7.0 2 3
- 0.14254 5 7 cbr 210 ------- 0 1.0 7.0 2 3
+ 0.145 1 2 cbr 210 ------- 0 1.0 7.0 12 14
- 0.145 1 2 cbr 210 ------- 0 1.0 7.0 12 14
r 0.14543 1 2 cbr 210 ------- 0 1.0 7.0 9 10
+ 0.14543 2 3 cbr 210 ------- 0 1.0 7.0 9 10
- 0.14543 2 3 cbr 210 ------- 0 1.0 7.0 9 10
r 0.14586 2 3 cbr 210 ------- 0 1.0 7.0 6 7
+ 0.14586 3 5 cbr 210 ------- 0 1.0 7.0 6 7
- 0.14586 3 5 cbr 210 ------- 0 1.0 7.0 6 7
r 0.14629 3 5 cbr 210 ------- 0 1.0 7.0 3 4
+ 0.14629 5 7 cbr 210 ------- 0 1.0 7.0 3 4
- 0.14629 5 7 cbr 210 ------- 0 1.0 7.0 3 4
r 0.14672 5 7 cbr 210 ------- 0 1.0 7.0 0 1
+ 0.14875 1 2 cbr 210 ------- 0 1.0 7.0 13 15
- 0.14875 1 2 cbr 210 ------- 0 1.0 7.0 13 15
r 0.14918 1 2 cbr 210 ------- 0 1.0 7.0 10 11
+ 0.14918 2 3 cbr 210 ------- 0 1.0 7.0 10 11
- 0.14918 2 3 cbr 210 ------- 0 1.0 7.0 10 11
r 0.14961 2 3 cbr 210 ------- 0 1.0 7.0 7 8
+ 0.14961 3 5 cbr 210 ------- 0 1.0 7.0 7 8
- 0.14961 3 5 cbr 210 ------- 0 1.0 7.0 7 8
r 0.15004 3 5 cbr 210 ------- 0 1.0 7.0 4 5
+ 0.15004 5 7 cbr 210 ------- 0 1.0 7.0 4 5
- 0.15004 5 7 cbr 210 ------- 0 1.0 7.0 4 5
r 0.15047 5 7 cbr 210 ------- 0 1.0 7.0 1 2
r 0.1516 6 4 ack 40 ------- 0 6.0 0.0 0 13
+ 0.1516 4 3 ack 40 ------- 0 6.0 0.0 0 13
- 0.1516 4 3 ack 40 ------- 0 6.0 0.0 0 13
+ 0.1525 1 2 cbr 210 ------- 0 1.0 7.0 14 16
- 0.1525 1 2 cbr 210 ------- 0 1.0 7.0 14 16
r 0.15293 1 2 cbr 210 ------- 0 1.0 7.0 11 12
+ 0.15293 2 3 cbr 210 ------- 0 1.0 7.0 11 12
- 0.15293 2 3 cbr 210 ------- 0 1.0 7.0 11 12
r 0.15336 2 3 cbr 210 ------- 0 1.0 7.0 8 9
+ 0.15336 3 5 cbr 210 ------- 0 1.0 7.0 8 9
- 0.15336 3 5 cbr 210 ------- 0 1.0 7.0 8 9
r 0.15379 3 5 cbr 210 ------- 0 1.0 7.0 5 6
+ 0.15379 5 7 cbr 210 ------- 0 1.0 7.0 5 6
- 0.15379 5 7 cbr 210 ------- 0 1.0 7.0 5 6
r 0.15422 5 7 cbr 210 ------- 0 1.0 7.0 2 3
+ 0.15625 1 2 cbr 210 ------- 0 1.0 7.0 15 17
- 0.15625 1 2 cbr 210 ------- 0 1.0 7.0 15 17
r 0.15668 1 2 cbr 210 ------- 0 1.0 7.0 12 14
+ 0.15668 2 3 cbr 210 ------- 0 1.0 7.0 12 14
- 0.15668 2 3 cbr 210 ------- 0 1.0 7.0 12 14
r 0.15711 2 3 cbr 210 ------- 0 1.0 7.0 9 10
+ 0.15711 3 5 cbr 210 ------- 0 1.0 7.0 9 10
- 0.15711 3 5 cbr 210 ------- 0 1.0 7.0 9 10
r 0.15754 3 5 cbr 210 ------- 0 1.0 7.0 6 7
+ 0.15754 5 7 cbr 210 ------- 0 1.0 7.0 6 7
- 0.15754 5 7 cbr 210 ------- 0 1.0 7.0 6 7
r 0.15797 5 7 cbr 210 ------- 0 1.0 7.0 3 4
+ 0.16 1 2 cbr 210 ------- 0 1.0 7.0 16 18
- 0.16 1 2 cbr 210 ------- 0 1.0 7.0 16 18
r 0.16043 1 2 cbr 210 ------- 0 1.0 7.0 13 15
+ 0.16043 2 3 cbr 210 ------- 0 1.0 7.0 13 15
- 0.16043 2 3 cbr 210 ------- 0 1.0 7.0 13 15
r 0.16086 2 3 cbr 210 ------- 0 1.0 7.0 10 11
+ 0.16086 3 5 cbr 210 ------- 0 1.0 7.0 10 11
- 0.16086 3 5 cbr 210 ------- 0 1.0 7.0 10 11
r 0.16129 3 5 cbr 210 ------- 0 1.0 7.0 7 8
+ 0.16129 5 7 cbr 210 ------- 0 1.0 7.0 7 8
- 0.16129 5 7 cbr 210 ------- 0 1.0 7.0 7 8
r 0.16172 5 7 cbr 210 ------- 0 1.0 7.0 4 5
r 0.16192 4 3 ack 40 ------- 0 6.0 0.0 0 13
+ 0.16192 3 2 ack 40 ------- 0 6.0 0.0 0 13
- 0.16192 3 2 ack 40 ------- 0 6.0 0.0 0 13
+ 0.16375 1 2 cbr 210 ------- 0 1.0 7.0 17 19
- 0.16375 1 2 cbr 210 ------- 0 1.0 7.0 17 19
r 0.16418 1 2 cbr 210 ------- 0 1.0 7.0 14 16
+ 0.16418 2 3 cbr 210 ------- 0 1.0 7.0 14 16
- 0.16418 2 3 cbr 210 ------- 0 1.0 7.0 14 16
r 0.16461 2 3 cbr 210 ------- 0 1.0 7.0 11 12
+ 0.16461 3 5 cbr 210 ------- 0 1.0 7.0 11 12
- 0.16461 3 5 cbr 210 ------- 0 1.0 7.0 11 12
r 0.16504 3 5 cbr 210 ------- 0 1.0 7.0 8 9
+ 0.16504 5 7 cbr 210 ------- 0 1.0 7.0 8 9
- 0.16504 5 7 cbr 210 ------- 0 1.0 7.0 8 9
r 0.16547 5 7 cbr 210 ------- 0 1.0 7.0 5 6
+ 0.1675 1 2 cbr 210 ------- 0 1.0 7.0 18 20
- 0.1675 1 2 cbr 210 ------- 0 1.0 7.0 18 20
r 0.16793 1 2 cbr 210 ------- 0 1.0 7.0 15 17
+ 0.16793 2 3 cbr 210 ------- 0 1.0 7.0 15 17
- 0.16793 2 3 cbr 210 ------- 0 1.0 7.0 15 17
r 0.16836 2 3 cbr 210 ------- 0 1.0 7.0 12 14
+ 0.16836 3 5 cbr 210 ------- 0 1.0 7.0 12 14
- 0.16836 3 5 cbr 210 ------- 0 1.0 7.0 12 14
r 0.16879 3 5 cbr 210 ------- 0 1.0 7.0 9 10
+ 0.16879 5 7 cbr 210 ------- 0 1.0 7.0 9 10
- 0.16879 5 7 cbr 210 ------- 0 1.0 7.0 9 10
r 0.16922 5 7 cbr 210 ------- 0 1.0 7.0 6 7
+ 0.17125 1 2 cbr 210 ------- 0 1.0 7.0 19 21
- 0.17125 1 2 cbr 210 ------- 0 1.0 7.0 19 21
r 0.17168 1 2 cbr 210 ------- 0 1.0 7.0 16 18
+ 0.17168 2 3 cbr 210 ------- 0 1.0 7.0 16 18
- 0.17168 2 3 cbr 210 ------- 0 1.0 7.0 16 18
r 0.17211 2 3 cbr 210 ------- 0 1.0 7.0 13 15
+ 0.17211 3 5 cbr 210 ------- 0 1.0 7.0 13 15
- 0.17211 3 5 cbr 210 ------- 0 1.0 7.0 13 15
r 0.17224 3 2 ack 40 ------- 0 6.0 0.0 0 13
+ 0.17224 2 0 ack 40 ------- 0 6.0 0.0 0 13
- 0.17224 2 0 ack 40 ------- 0 6.0 0.0 0 13
r 0.17254 3 5 cbr 210 ------- 0 1.0 7.0 10 11
+ 0.17254 5 7 cbr 210 ------- 0 1.0 7.0 10 11
- 0.17254 5 7 cbr 210 ------- 0 1.0 7.0 10 11
r 0.17297 5 7 cbr 210 ------- 0 1.0 7.0 7 8
+ 0.175 1 2 cbr 210 ------- 0 1.0 7.0 20 22
- 0.175 1 2 cbr 210 ------- 0 1.0 7.0 20 22
r 0.17543 1 2 cbr 210 ------- 0 1.0 7.0 17 19
+ 0.17543 2 3 cbr 210 ------- 0 1.0 7.0 17 19
- 0.17543 2 3 cbr 210 ------- 0 1.0 7.0 17 19
r 0.17586 2 3 cbr 210 ------- 0 1.0 7.0 14 16
+ 0.17586 3 5 cbr 210 ------- 0 1.0 7.0 14 16
- 0.17586 3 5 cbr 210 ------- 0 1.0 7.0 14 16
r 0.17629 3 5 cbr 210 ------- 0 1.0 7.0 11 12
+ 0.17629 5 7 cbr 210 ------- 0 1.0 7.0 11 12
- 0.17629 5 7 cbr 210 ------- 0 1.0 7.0 11 12
r 0.17672 5 7 cbr 210 ------- 0 1.0 7.0 8 9
+ 0.17875 1 2 cbr 210 ------- 0 1.0 7.0 21 23
- 0.17875 1 2 cbr 210 ------- 0 1.0 7.0 21 23
r 0.17918 1 2 cbr 210 ------- 0 1.0 7.0 18 20
+ 0.17918 2 3 cbr 210 ------- 0 1.0 7.0 18 20
- 0.17918 2 3 cbr 210 ------- 0 1.0 7.0 18 20
r 0.17961 2 3 cbr 210 ------- 0 1.0 7.0 15 17
+ 0.17961 3 5 cbr 210 ------- 0 1.0 7.0 15 17
- 0.17961 3 5 cbr 210 ------- 0 1.0 7.0 15 17
r 0.18004 3 5 cbr 210 ------- 0 1.0 7.0 12 14
+ 0.18004 5 7 cbr 210 ------- 0 1.0 7.0 12 14
- 0.18004 5 7 cbr 210 ------- 0 1.0 7.0 12 14
r 0.18047 5 7 cbr 210 ------- 0 1.0 7.0 9 10
+ 0.1825 1 2 cbr 210 ------- 0 1.0 7.0 22 24
- 0.1825 1 2 cbr 210 ------- 0 1.0 7.0 22 24
r 0.18256 2 0 ack 40 ------- 0 6.0 0.0 0 13
+ 0.18256 0 2 tcp 1040 ------- 0 0.0 6.0 1 25
- 0.18256 0 2 tcp 1040 ------- 0 0.0 6.0 1 25
+ 0.18256 0 2 tcp 1040 ------- 0 0.0 6.0 2 26
r 0.18293 1 2 cbr 210 ------- 0 1.0 7.0 19 21
+ 0.18293 2 3 cbr 210 ------- 0 1.0 7.0 19 21
- 0.18293 2 3 cbr 210 ------- 0 1.0 7.0 19 21
r 0.18336 2 3 cbr 210 ------- 0 1.0 7.0 16 18
+ 0.18336 3 5 cbr 210 ------- 0 1.0 7.0 16 18
- 0.18336 3 5 cbr 210 ------- 0 1.0 7.0 16 18
r 0.18379 3 5 cbr 210 ------- 0 1.0 7.0 13 15
+ 0.18379 5 7 cbr 210 ------- 0 1.0 7.0 13 15
- 0.18379 5 7 cbr 210 ------- 0 1.0 7.0 13 15
r 0.18422 5 7 cbr 210 ------- 0 1.0 7.0 10 11
+ 0.18625 1 2 cbr 210 ------- 0 1.0 7.0 23 27
- 0.18625 1 2 cbr 210 ------- 0 1.0 7.0 23 27
r 0.18668 1 2 cbr 210 ------- 0 1.0 7.0 20 22
+ 0.18668 2 3 cbr 210 ------- 0 1.0 7.0 20 22
- 0.18668 2 3 cbr 210 ------- 0 1.0 7.0 20 22
r 0.18711 2 3 cbr 210 ------- 0 1.0 7.0 17 19
+ 0.18711 3 5 cbr 210 ------- 0 1.0 7.0 17 19
- 0.18711 3 5 cbr 210 ------- 0 1.0 7.0 17 19
r 0.18754 3 5 cbr 210 ------- 0 1.0 7.0 14 16
+ 0.18754 5 7 cbr 210 ------- 0 1.0 7.0 14 16
- 0.18754 5 7 cbr 210 ------- 0 1.0 7.0 14 16
r 0.18797 5 7 cbr 210 ------- 0 1.0 7.0 11 12
+ 0.19 1 2 cbr 210 ------- 0 1.0 7.0 24 28
- 0.19 1 2 cbr 210 ------- 0 1.0 7.0 24 28
r 0.19043 1 2 cbr 210 ------- 0 1.0 7.0 21 23
+ 0.19043 2 3 cbr 210 ------- 0 1.0 7.0 21 23
- 0.19043 2 3 cbr 210 ------- 0 1.0 7.0 21 23
r 0.19086 2 3 cbr 210 ------- 0 1.0 7.0 18 20
+ 0.19086 3 5 cbr 210 ------- 0 1.0 7.0 18 20
- 0.19086 3 5 cbr 210 ------- 0 1.0 7.0 18 20
- 0.19088 0 2 tcp 1040 ------- 0 0.0 6.0 2 26
r 0.19129 3 5 cbr 210 ------- 0 1.0 7.0 15 17
+ 0.19129 5 7 cbr 210 ------- 0 1.0 7.0 15 17
- 0.19129 5 7 cbr 210 ------- 0 1.0 7.0 15 17
r 0.19172 5 7 cbr 210 ------- 0 1.0 7.0 12 14
+ 0.19375 1 2 cbr 210 ------- 0 1.0 7.0 25 29
- 0.19375 1 2 cbr 210 ------- 0 1.0 7.0 25 29
r 0.19418 1 2 cbr 210 ------- 0 1.0 7.0 22 24
+ 0.19418 2 3 cbr 210 ------- 0 1.0 7.0 22 24
- 0.19418 2 3 cbr 210 ------- 0 1.0 7.0 22 24
r 0.19461 2 3 cbr 210 ------- 0 1.0 7.0 19 21
+ 0.19461 3 5 cbr 210 ------- 0 1.0 7.0 19 21
- 0.19461 3 5 cbr 210 ------- 0 1.0 7.0 19 21
r 0.19504 3 5 cbr 210 ------- 0 1.0 7.0 16 18
+ 0.19504 5 7 cbr 210 ------- 0 1.0 7.0 16 18
- 0.19504 5 7 cbr 210 ------- 0 1.0 7.0 16 18
r 0.19547 5 7 cbr 210 ------- 0 1.0 7.0 13 15
+ 0.1975 1 2 cbr 210 ------- 0 1.0 7.0 26 30
- 0.1975 1 2 cbr 210 ------- 0 1.0 7.0 26 30
r 0.19793 1 2 cbr 210 ------- 0 1.0 7.0 23 27
+ 0.19793 2 3 cbr 210 ------- 0 1.0 7.0 23 27
- 0.19793 2 3 cbr 210 ------- 0 1.0 7.0 23 27
r 0.19836 2 3 cbr 210 ------- 0 1.0 7.0 20 22
+ 0.19836 3 5 cbr 210 ------- 0 1.0 7.0 20 22
- 0.19836 3 5 cbr 210 ------- 0 1.0 7.0 20 22
r 0.19879 3 5 cbr 210 ------- 0 1.0 7.0 17 19
+ 0.19879 5 7 cbr 210 ------- 0 1.0 7.0 17 19
- 0.19879 5 7 cbr 210 ------- 0 1.0 7.0 17 19
r 0.19922 5 7 cbr 210 ------- 0 1.0 7.0 14 16
r 0.20088 0 2 tcp 1040 ------- 0 0.0 6.0 1 25
+ 0.20088 2 3 tcp 1040 ------- 0 0.0 6.0 1 25
- 0.20088 2 3 tcp 1040 ------- 0 0.0 6.0 1 25
+ 0.20125 1 2 cbr 210 ------- 0 1.0 7.0 27 31
- 0.20125 1 2 cbr 210 ------- 0 1.0 7.0 27 31
r 0.20168 1 2 cbr 210 ------- 0 1.0 7.0 24 28
+ 0.20168 2 3 cbr 210 ------- 0 1.0 7.0 24 28
r 0.20211 2 3 cbr 210 ------- 0 1.0 7.0 21 23
+ 0.20211 3 5 cbr 210 ------- 0 1.0 7.0 21 23
- 0.20211 3 5 cbr 210 ------- 0 1.0 7.0 21 23
r 0.20254 3 5 cbr 210 ------- 0 1.0 7.0 18 20
+ 0.20254 5 7 cbr 210 ------- 0 1.0 7.0 18 20
- 0.20254 5 7 cbr 210 ------- 0 1.0 7.0 18 20
r 0.20297 5 7 cbr 210 ------- 0 1.0 7.0 15 17
+ 0.205 1 2 cbr 210 ------- 0 1.0 7.0 28 32
- 0.205 1 2 cbr 210 ------- 0 1.0 7.0 28 32
r 0.20543 1 2 cbr 210 ------- 0 1.0 7.0 25 29
+ 0.20543 2 3 cbr 210 ------- 0 1.0 7.0 25 29
r 0.20586 2 3 cbr 210 ------- 0 1.0 7.0 22 24
+ 0.20586 3 5 cbr 210 ------- 0 1.0 7.0 22 24
- 0.20586 3 5 cbr 210 ------- 0 1.0 7.0 22 24
r 0.20629 3 5 cbr 210 ------- 0 1.0 7.0 19 21
+ 0.20629 5 7 cbr 210 ------- 0 1.0 7.0 19 21
- 0.20629 5 7 cbr 210 ------- 0 1.0 7.0 19 21
r 0.20672 5 7 cbr 210 ------- 0 1.0 7.0 16 18
+ 0.20875 1 2 cbr 210 ------- 0 1.0 7.0 29 33
- 0.20875 1 2 cbr 210 ------- 0 1.0 7.0 29 33
r 0.20918 1 2 cbr 210 ------- 0 1.0 7.0 26 30
+ 0.20918 2 3 cbr 210 ------- 0 1.0 7.0 26 30
r 0.2092 0 2 tcp 1040 ------- 0 0.0 6.0 2 26
+ 0.2092 2 3 tcp 1040 ------- 0 0.0 6.0 2 26
- 0.2092 2 3 cbr 210 ------- 0 1.0 7.0 24 28
r 0.20961 2 3 cbr 210 ------- 0 1.0 7.0 23 27
+ 0.20961 3 5 cbr 210 ------- 0 1.0 7.0 23 27
- 0.20961 3 5 cbr 210 ------- 0 1.0 7.0 23 27
r 0.21004 3 5 cbr 210 ------- 0 1.0 7.0 20 22
+ 0.21004 5 7 cbr 210 ------- 0 1.0 7.0 20 22
- 0.21004 5 7 cbr 210 ------- 0 1.0 7.0 20 22
r 0.21047 5 7 cbr 210 ------- 0 1.0 7.0 17 19
- 0.21088 2 3 cbr 210 ------- 0 1.0 7.0 25 29
+ 0.2125 1 2 cbr 210 ------- 0 1.0 7.0 30 34
- 0.2125 1 2 cbr 210 ------- 0 1.0 7.0 30 34
- 0.21256 2 3 cbr 210 ------- 0 1.0 7.0 26 30
r 0.21293 1 2 cbr 210 ------- 0 1.0 7.0 27 31
+ 0.21293 2 3 cbr 210 ------- 0 1.0 7.0 27 31
r 0.21379 3 5 cbr 210 ------- 0 1.0 7.0 21 23
+ 0.21379 5 7 cbr 210 ------- 0 1.0 7.0 21 23
- 0.21379 5 7 cbr 210 ------- 0 1.0 7.0 21 23
r 0.21422 5 7 cbr 210 ------- 0 1.0 7.0 18 20
- 0.21424 2 3 tcp 1040 ------- 0 0.0 6.0 2 26
+ 0.21625 1 2 cbr 210 ------- 0 1.0 7.0 31 35
- 0.21625 1 2 cbr 210 ------- 0 1.0 7.0 31 35
r 0.21668 1 2 cbr 210 ------- 0 1.0 7.0 28 32
+ 0.21668 2 3 cbr 210 ------- 0 1.0 7.0 28 32
r 0.21754 3 5 cbr 210 ------- 0 1.0 7.0 22 24
+ 0.21754 5 7 cbr 210 ------- 0 1.0 7.0 22 24
- 0.21754 5 7 cbr 210 ------- 0 1.0 7.0 22 24
r 0.21797 5 7 cbr 210 ------- 0 1.0 7.0 19 21
r 0.2192 2 3 tcp 1040 ------- 0 0.0 6.0 1 25
+ 0.2192 3 4 tcp 1040 ------- 0 0.0 6.0 1 25
- 0.2192 3 4 tcp 1040 ------- 0 0.0 6.0 1 25
+ 0.22 1 2 cbr 210 ------- 0 1.0 7.0 32 36
- 0.22 1 2 cbr 210 ------- 0 1.0 7.0 32 36
r 0.22043 1 2 cbr 210 ------- 0 1.0 7.0 29 33
+ 0.22043 2 3 cbr 210 ------- 0 1.0 7.0 29 33
r 0.22088 2 3 cbr 210 ------- 0 1.0 7.0 24 28
+ 0.22088 3 5 cbr 210 ------- 0 1.0 7.0 24 28
- 0.22088 3 5 cbr 210 ------- 0 1.0 7.0 24 28
r 0.22129 3 5 cbr 210 ------- 0 1.0 7.0 23 27
+ 0.22129 5 7 cbr 210 ------- 0 1.0 7.0 23 27
- 0.22129 5 7 cbr 210 ------- 0 1.0 7.0 23 27
r 0.22172 5 7 cbr 210 ------- 0 1.0 7.0 20 22
- 0.22256 2 3 cbr 210 ------- 0 1.0 7.0 27 31
r 0.22256 2 3 cbr 210 ------- 0 1.0 7.0 25 29
+ 0.22256 3 5 cbr 210 ------- 0 1.0 7.0 25 29
- 0.22256 3 5 cbr 210 ------- 0 1.0 7.0 25 29
+ 0.22375 1 2 cbr 210 ------- 0 1.0 7.0 33 37
- 0.22375 1 2 cbr 210 ------- 0 1.0 7.0 33 37
r 0.22418 1 2 cbr 210 ------- 0 1.0 7.0 30 34
+ 0.22418 2 3 cbr 210 ------- 0 1.0 7.0 30 34
- 0.22424 2 3 cbr 210 ------- 0 1.0 7.0 28 32
r 0.22424 2 3 cbr 210 ------- 0 1.0 7.0 26 30
+ 0.22424 3 5 cbr 210 ------- 0 1.0 7.0 26 30
- 0.22424 3 5 cbr 210 ------- 0 1.0 7.0 26 30
r 0.22547 5 7 cbr 210 ------- 0 1.0 7.0 21 23
- 0.22592 2 3 cbr 210 ------- 0 1.0 7.0 29 33
+ 0.2275 1 2 cbr 210 ------- 0 1.0 7.0 34 38
- 0.2275 1 2 cbr 210 ------- 0 1.0 7.0 34 38
- 0.2276 2 3 cbr 210 ------- 0 1.0 7.0 30 34
r 0.22793 1 2 cbr 210 ------- 0 1.0 7.0 31 35
+ 0.22793 2 3 cbr 210 ------- 0 1.0 7.0 31 35
r 0.22922 5 7 cbr 210 ------- 0 1.0 7.0 22 24
- 0.22928 2 3 cbr 210 ------- 0 1.0 7.0 31 35
+ 0.23125 1 2 cbr 210 ------- 0 1.0 7.0 35 39
- 0.23125 1 2 cbr 210 ------- 0 1.0 7.0 35 39
r 0.23168 1 2 cbr 210 ------- 0 1.0 7.0 32 36
+ 0.23168 2 3 cbr 210 ------- 0 1.0 7.0 32 36
- 0.23168 2 3 cbr 210 ------- 0 1.0 7.0 32 36
r 0.23256 2 3 tcp 1040 ------- 0 0.0 6.0 2 26
+ 0.23256 3 4 tcp 1040 ------- 0 0.0 6.0 2 26
- 0.23256 3 4 tcp 1040 ------- 0 0.0 6.0 2 26
r 0.23256 3 5 cbr 210 ------- 0 1.0 7.0 24 28
+ 0.23256 5 7 cbr 210 ------- 0 1.0 7.0 24 28
- 0.23256 5 7 cbr 210 ------- 0 1.0 7.0 24 28
r 0.23297 5 7 cbr 210 ------- 0 1.0 7.0 23 27
r 0.23424 2 3 cbr 210 ------- 0 1.0 7.0 27 31
+ 0.23424 3 5 cbr 210 ------- 0 1.0 7.0 27 31
- 0.23424 3 5 cbr 210 ------- 0 1.0 7.0 27 31
r 0.23424 3 5 cbr 210 ------- 0 1.0 7.0 25 29
+ 0.23424 5 7 cbr 210 ------- 0 1.0 7.0 25 29
- 0.23424 5 7 cbr 210 ------- 0 1.0 7.0 25 29
+ 0.235 1 2 cbr 210 ------- 0 1.0 7.0 36 40
- 0.235 1 2 cbr 210 ------- 0 1.0 7.0 36 40
r 0.23543 1 2 cbr 210 ------- 0 1.0 7.0 33 37
+ 0.23543 2 3 cbr 210 ------- 0 1.0 7.0 33 37
- 0.23543 2 3 cbr 210 ------- 0 1.0 7.0 33 37
r 0.23592 2 3 cbr 210 ------- 0 1.0 7.0 28 32
+ 0.23592 3 5 cbr 210 ------- 0 1.0 7.0 28 32
- 0.23592 3 5 cbr 210 ------- 0 1.0 7.0 28 32
r 0.23592 3 5 cbr 210 ------- 0 1.0 7.0 26 30
+ 0.23592 5 7 cbr 210 ------- 0 1.0 7.0 26 30
- 0.23592 5 7 cbr 210 ------- 0 1.0 7.0 26 30
r 0.23752 3 4 tcp 1040 ------- 0 0.0 6.0 1 25
+ 0.23752 4 6 tcp 1040 ------- 0 0.0 6.0 1 25
- 0.23752 4 6 tcp 1040 ------- 0 0.0 6.0 1 25
r 0.2376 2 3 cbr 210 ------- 0 1.0 7.0 29 33
+ 0.2376 3 5 cbr 210 ------- 0 1.0 7.0 29 33
- 0.2376 3 5 cbr 210 ------- 0 1.0 7.0 29 33
+ 0.23875 1 2 cbr 210 ------- 0 1.0 7.0 37 41
- 0.23875 1 2 cbr 210 ------- 0 1.0 7.0 37 41
r 0.23918 1 2 cbr 210 ------- 0 1.0 7.0 34 38
+ 0.23918 2 3 cbr 210 ------- 0 1.0 7.0 34 38
- 0.23918 2 3 cbr 210 ------- 0 1.0 7.0 34 38
r 0.23928 2 3 cbr 210 ------- 0 1.0 7.0 30 34
+ 0.23928 3 5 cbr 210 ------- 0 1.0 7.0 30 34
- 0.23928 3 5 cbr 210 ------- 0 1.0 7.0 30 34
r 0.24096 2 3 cbr 210 ------- 0 1.0 7.0 31 35
+ 0.24096 3 5 cbr 210 ------- 0 1.0 7.0 31 35
- 0.24096 3 5 cbr 210 ------- 0 1.0 7.0 31 35
+ 0.2425 1 2 cbr 210 ------- 0 1.0 7.0 38 42
- 0.2425 1 2 cbr 210 ------- 0 1.0 7.0 38 42
r 0.24293 1 2 cbr 210 ------- 0 1.0 7.0 35 39
+ 0.24293 2 3 cbr 210 ------- 0 1.0 7.0 35 39
- 0.24293 2 3 cbr 210 ------- 0 1.0 7.0 35 39
r 0.24336 2 3 cbr 210 ------- 0 1.0 7.0 32 36
+ 0.24336 3 5 cbr 210 ------- 0 1.0 7.0 32 36
- 0.24336 3 5 cbr 210 ------- 0 1.0 7.0 32 36
r 0.24424 5 7 cbr 210 ------- 0 1.0 7.0 24 28
r 0.24592 3 5 cbr 210 ------- 0 1.0 7.0 27 31
+ 0.24592 5 7 cbr 210 ------- 0 1.0 7.0 27 31
- 0.24592 5 7 cbr 210 ------- 0 1.0 7.0 27 31
r 0.24592 5 7 cbr 210 ------- 0 1.0 7.0 25 29
+ 0.24625 1 2 cbr 210 ------- 0 1.0 7.0 39 43
- 0.24625 1 2 cbr 210 ------- 0 1.0 7.0 39 43
r 0.24668 1 2 cbr 210 ------- 0 1.0 7.0 36 40
+ 0.24668 2 3 cbr 210 ------- 0 1.0 7.0 36 40
- 0.24668 2 3 cbr 210 ------- 0 1.0 7.0 36 40
r 0.24711 2 3 cbr 210 ------- 0 1.0 7.0 33 37
+ 0.24711 3 5 cbr 210 ------- 0 1.0 7.0 33 37
- 0.24711 3 5 cbr 210 ------- 0 1.0 7.0 33 37
r 0.2476 3 5 cbr 210 ------- 0 1.0 7.0 28 32
+ 0.2476 5 7 cbr 210 ------- 0 1.0 7.0 28 32
- 0.2476 5 7 cbr 210 ------- 0 1.0 7.0 28 32
r 0.2476 5 7 cbr 210 ------- 0 1.0 7.0 26 30
r 0.24928 3 5 cbr 210 ------- 0 1.0 7.0 29 33
+ 0.24928 5 7 cbr 210 ------- 0 1.0 7.0 29 33
- 0.24928 5 7 cbr 210 ------- 0 1.0 7.0 29 33
+ 0.25 1 2 cbr 210 ------- 0 1.0 7.0 40 44
- 0.25 1 2 cbr 210 ------- 0 1.0 7.0 40 44
r 0.25043 1 2 cbr 210 ------- 0 1.0 7.0 37 41
+ 0.25043 2 3 cbr 210 ------- 0 1.0 7.0 37 41
- 0.25043 2 3 cbr 210 ------- 0 1.0 7.0 37 41
r 0.25086 2 3 cbr 210 ------- 0 1.0 7.0 34 38
+ 0.25086 3 5 cbr 210 ------- 0 1.0 7.0 34 38
- 0.25086 3 5 cbr 210 ------- 0 1.0 7.0 34 38
r 0.25088 3 4 tcp 1040 ------- 0 0.0 6.0 2 26
+ 0.25088 4 6 tcp 1040 ------- 0 0.0 6.0 2 26
- 0.25088 4 6 tcp 1040 ------- 0 0.0 6.0 2 26
r 0.25096 3 5 cbr 210 ------- 0 1.0 7.0 30 34
+ 0.25096 5 7 cbr 210 ------- 0 1.0 7.0 30 34
- 0.25096 5 7 cbr 210 ------- 0 1.0 7.0 30 34
r 0.25264 3 5 cbr 210 ------- 0 1.0 7.0 31 35
+ 0.25264 5 7 cbr 210 ------- 0 1.0 7.0 31 35
- 0.25264 5 7 cbr 210 ------- 0 1.0 7.0 31 35
+ 0.25375 1 2 cbr 210 ------- 0 1.0 7.0 41 45
- 0.25375 1 2 cbr 210 ------- 0 1.0 7.0 41 45
r 0.25418 1 2 cbr 210 ------- 0 1.0 7.0 38 42
+ 0.25418 2 3 cbr 210 ------- 0 1.0 7.0 38 42
- 0.25418 2 3 cbr 210 ------- 0 1.0 7.0 38 42
r 0.25461 2 3 cbr 210 ------- 0 1.0 7.0 35 39
+ 0.25461 3 5 cbr 210 ------- 0 1.0 7.0 35 39
- 0.25461 3 5 cbr 210 ------- 0 1.0 7.0 35 39
r 0.25504 3 5 cbr 210 ------- 0 1.0 7.0 32 36
+ 0.25504 5 7 cbr 210 ------- 0 1.0 7.0 32 36
- 0.25504 5 7 cbr 210 ------- 0 1.0 7.0 32 36
r 0.25584 4 6 tcp 1040 ------- 0 0.0 6.0 1 25
+ 0.25584 6 4 ack 40 ------- 0 6.0 0.0 1 46
- 0.25584 6 4 ack 40 ------- 0 6.0 0.0 1 46
+ 0.2575 1 2 cbr 210 ------- 0 1.0 7.0 42 47
- 0.2575 1 2 cbr 210 ------- 0 1.0 7.0 42 47
r 0.2576 5 7 cbr 210 ------- 0 1.0 7.0 27 31
r 0.25793 1 2 cbr 210 ------- 0 1.0 7.0 39 43
+ 0.25793 2 3 cbr 210 ------- 0 1.0 7.0 39 43
- 0.25793 2 3 cbr 210 ------- 0 1.0 7.0 39 43
r 0.25836 2 3 cbr 210 ------- 0 1.0 7.0 36 40
+ 0.25836 3 5 cbr 210 ------- 0 1.0 7.0 36 40
- 0.25836 3 5 cbr 210 ------- 0 1.0 7.0 36 40
r 0.25879 3 5 cbr 210 ------- 0 1.0 7.0 33 37
+ 0.25879 5 7 cbr 210 ------- 0 1.0 7.0 33 37
- 0.25879 5 7 cbr 210 ------- 0 1.0 7.0 33 37
r 0.25928 5 7 cbr 210 ------- 0 1.0 7.0 28 32
r 0.26096 5 7 cbr 210 ------- 0 1.0 7.0 29 33
+ 0.26125 1 2 cbr 210 ------- 0 1.0 7.0 43 48
- 0.26125 1 2 cbr 210 ------- 0 1.0 7.0 43 48
r 0.26168 1 2 cbr 210 ------- 0 1.0 7.0 40 44
+ 0.26168 2 3 cbr 210 ------- 0 1.0 7.0 40 44
- 0.26168 2 3 cbr 210 ------- 0 1.0 7.0 40 44
r 0.26211 2 3 cbr 210 ------- 0 1.0 7.0 37 41
+ 0.26211 3 5 cbr 210 ------- 0 1.0 7.0 37 41
- 0.26211 3 5 cbr 210 ------- 0 1.0 7.0 37 41
r 0.26254 3 5 cbr 210 ------- 0 1.0 7.0 34 38
+ 0.26254 5 7 cbr 210 ------- 0 1.0 7.0 34 38
- 0.26254 5 7 cbr 210 ------- 0 1.0 7.0 34 38
r 0.26264 5 7 cbr 210 ------- 0 1.0 7.0 30 34
r 0.26432 5 7 cbr 210 ------- 0 1.0 7.0 31 35
+ 0.265 1 2 cbr 210 ------- 0 1.0 7.0 44 49
- 0.265 1 2 cbr 210 ------- 0 1.0 7.0 44 49
r 0.26543 1 2 cbr 210 ------- 0 1.0 7.0 41 45
+ 0.26543 2 3 cbr 210 ------- 0 1.0 7.0 41 45
- 0.26543 2 3 cbr 210 ------- 0 1.0 7.0 41 45
r 0.26586 2 3 cbr 210 ------- 0 1.0 7.0 38 42
+ 0.26586 3 5 cbr 210 ------- 0 1.0 7.0 38 42
- 0.26586 3 5 cbr 210 ------- 0 1.0 7.0 38 42
r 0.26616 6 4 ack 40 ------- 0 6.0 0.0 1 46
+ 0.26616 4 3 ack 40 ------- 0 6.0 0.0 1 46
- 0.26616 4 3 ack 40 ------- 0 6.0 0.0 1 46
r 0.26629 3 5 cbr 210 ------- 0 1.0 7.0 35 39
+ 0.26629 5 7 cbr 210 ------- 0 1.0 7.0 35 39
- 0.26629 5 7 cbr 210 ------- 0 1.0 7.0 35 39
r 0.26672 5 7 cbr 210 ------- 0 1.0 7.0 32 36
+ 0.26875 1 2 cbr 210 ------- 0 1.0 7.0 45 50
- 0.26875 1 2 cbr 210 ------- 0 1.0 7.0 45 50
r 0.26918 1 2 cbr 210 ------- 0 1.0 7.0 42 47
+ 0.26918 2 3 cbr 210 ------- 0 1.0 7.0 42 47
- 0.26918 2 3 cbr 210 ------- 0 1.0 7.0 42 47
r 0.2692 4 6 tcp 1040 ------- 0 0.0 6.0 2 26
+ 0.2692 6 4 ack 40 ------- 0 6.0 0.0 2 51
- 0.2692 6 4 ack 40 ------- 0 6.0 0.0 2 51
r 0.26961 2 3 cbr 210 ------- 0 1.0 7.0 39 43
+ 0.26961 3 5 cbr 210 ------- 0 1.0 7.0 39 43
- 0.26961 3 5 cbr 210 ------- 0 1.0 7.0 39 43
r 0.27004 3 5 cbr 210 ------- 0 1.0 7.0 36 40
+ 0.27004 5 7 cbr 210 ------- 0 1.0 7.0 36 40
- 0.27004 5 7 cbr 210 ------- 0 1.0 7.0 36 40
r 0.27047 5 7 cbr 210 ------- 0 1.0 7.0 33 37
+ 0.2725 1 2 cbr 210 ------- 0 1.0 7.0 46 52
- 0.2725 1 2 cbr 210 ------- 0 1.0 7.0 46 52
r 0.27293 1 2 cbr 210 ------- 0 1.0 7.0 43 48
+ 0.27293 2 3 cbr 210 ------- 0 1.0 7.0 43 48
- 0.27293 2 3 cbr 210 ------- 0 1.0 7.0 43 48
r 0.27336 2 3 cbr 210 ------- 0 1.0 7.0 40 44
+ 0.27336 3 5 cbr 210 ------- 0 1.0 7.0 40 44
- 0.27336 3 5 cbr 210 ------- 0 1.0 7.0 40 44
r 0.27379 3 5 cbr 210 ------- 0 1.0 7.0 37 41
+ 0.27379 5 7 cbr 210 ------- 0 1.0 7.0 37 41
- 0.27379 5 7 cbr 210 ------- 0 1.0 7.0 37 41
r 0.27422 5 7 cbr 210 ------- 0 1.0 7.0 34 38
+ 0.27625 1 2 cbr 210 ------- 0 1.0 7.0 47 53
- 0.27625 1 2 cbr 210 ------- 0 1.0 7.0 47 53
r 0.27648 4 3 ack 40 ------- 0 6.0 0.0 1 46
+ 0.27648 3 2 ack 40 ------- 0 6.0 0.0 1 46
- 0.27648 3 2 ack 40 ------- 0 6.0 0.0 1 46
r 0.27668 1 2 cbr 210 ------- 0 1.0 7.0 44 49
+ 0.27668 2 3 cbr 210 ------- 0 1.0 7.0 44 49
- 0.27668 2 3 cbr 210 ------- 0 1.0 7.0 44 49
r 0.27711 2 3 cbr 210 ------- 0 1.0 7.0 41 45
+ 0.27711 3 5 cbr 210 ------- 0 1.0 7.0 41 45
- 0.27711 3 5 cbr 210 ------- 0 1.0 7.0 41 45
r 0.27754 3 5 cbr 210 ------- 0 1.0 7.0 38 42
+ 0.27754 5 7 cbr 210 ------- 0 1.0 7.0 38 42
- 0.27754 5 7 cbr 210 ------- 0 1.0 7.0 38 42
r 0.27797 5 7 cbr 210 ------- 0 1.0 7.0 35 39
r 0.27952 6 4 ack 40 ------- 0 6.0 0.0 2 51
+ 0.27952 4 3 ack 40 ------- 0 6.0 0.0 2 51
- 0.27952 4 3 ack 40 ------- 0 6.0 0.0 2 51
+ 0.28 1 2 cbr 210 ------- 0 1.0 7.0 48 54
- 0.28 1 2 cbr 210 ------- 0 1.0 7.0 48 54
r 0.28043 1 2 cbr 210 ------- 0 1.0 7.0 45 50
+ 0.28043 2 3 cbr 210 ------- 0 1.0 7.0 45 50
- 0.28043 2 3 cbr 210 ------- 0 1.0 7.0 45 50
r 0.28086 2 3 cbr 210 ------- 0 1.0 7.0 42 47
+ 0.28086 3 5 cbr 210 ------- 0 1.0 7.0 42 47
- 0.28086 3 5 cbr 210 ------- 0 1.0 7.0 42 47
r 0.28129 3 5 cbr 210 ------- 0 1.0 7.0 39 43
+ 0.28129 5 7 cbr 210 ------- 0 1.0 7.0 39 43
- 0.28129 5 7 cbr 210 ------- 0 1.0 7.0 39 43
r 0.28172 5 7 cbr 210 ------- 0 1.0 7.0 36 40
+ 0.28375 1 2 cbr 210 ------- 0 1.0 7.0 49 55
- 0.28375 1 2 cbr 210 ------- 0 1.0 7.0 49 55
r 0.28418 1 2 cbr 210 ------- 0 1.0 7.0 46 52
+ 0.28418 2 3 cbr 210 ------- 0 1.0 7.0 46 52
- 0.28418 2 3 cbr 210 ------- 0 1.0 7.0 46 52
r 0.28461 2 3 cbr 210 ------- 0 1.0 7.0 43 48
+ 0.28461 3 5 cbr 210 ------- 0 1.0 7.0 43 48
- 0.28461 3 5 cbr 210 ------- 0 1.0 7.0 43 48
r 0.28504 3 5 cbr 210 ------- 0 1.0 7.0 40 44
+ 0.28504 5 7 cbr 210 ------- 0 1.0 7.0 40 44
- 0.28504 5 7 cbr 210 ------- 0 1.0 7.0 40 44
r 0.28547 5 7 cbr 210 ------- 0 1.0 7.0 37 41
r 0.2868 3 2 ack 40 ------- 0 6.0 0.0 1 46
+ 0.2868 2 0 ack 40 ------- 0 6.0 0.0 1 46
- 0.2868 2 0 ack 40 ------- 0 6.0 0.0 1 46
+ 0.2875 1 2 cbr 210 ------- 0 1.0 7.0 50 56
- 0.2875 1 2 cbr 210 ------- 0 1.0 7.0 50 56
r 0.28793 1 2 cbr 210 ------- 0 1.0 7.0 47 53
+ 0.28793 2 3 cbr 210 ------- 0 1.0 7.0 47 53
- 0.28793 2 3 cbr 210 ------- 0 1.0 7.0 47 53
r 0.28836 2 3 cbr 210 ------- 0 1.0 7.0 44 49
+ 0.28836 3 5 cbr 210 ------- 0 1.0 7.0 44 49
- 0.28836 3 5 cbr 210 ------- 0 1.0 7.0 44 49
r 0.28879 3 5 cbr 210 ------- 0 1.0 7.0 41 45
+ 0.28879 5 7 cbr 210 ------- 0 1.0 7.0 41 45
- 0.28879 5 7 cbr 210 ------- 0 1.0 7.0 41 45
r 0.28922 5 7 cbr 210 ------- 0 1.0 7.0 38 42
r 0.28984 4 3 ack 40 ------- 0 6.0 0.0 2 51
+ 0.28984 3 2 ack 40 ------- 0 6.0 0.0 2 51
- 0.28984 3 2 ack 40 ------- 0 6.0 0.0 2 51
+ 0.29125 1 2 cbr 210 ------- 0 1.0 7.0 51 57
- 0.29125 1 2 cbr 210 ------- 0 1.0 7.0 51 57
r 0.29168 1 2 cbr 210 ------- 0 1.0 7.0 48 54
+ 0.29168 2 3 cbr 210 ------- 0 1.0 7.0 48 54
- 0.29168 2 3 cbr 210 ------- 0 1.0 7.0 48 54
r 0.29211 2 3 cbr 210 ------- 0 1.0 7.0 45 50
+ 0.29211 3 5 cbr 210 ------- 0 1.0 7.0 45 50
- 0.29211 3 5 cbr 210 ------- 0 1.0 7.0 45 50
r 0.29254 3 5 cbr 210 ------- 0 1.0 7.0 42 47
+ 0.29254 5 7 cbr 210 ------- 0 1.0 7.0 42 47
- 0.29254 5 7 cbr 210 ------- 0 1.0 7.0 42 47
r 0.29297 5 7 cbr 210 ------- 0 1.0 7.0 39 43
+ 0.295 1 2 cbr 210 ------- 0 1.0 7.0 52 58
- 0.295 1 2 cbr 210 ------- 0 1.0 7.0 52 58
r 0.29543 1 2 cbr 210 ------- 0 1.0 7.0 49 55
+ 0.29543 2 3 cbr 210 ------- 0 1.0 7.0 49 55
- 0.29543 2 3 cbr 210 ------- 0 1.0 7.0 49 55
r 0.29586 2 3 cbr 210 ------- 0 1.0 7.0 46 52
+ 0.29586 3 5 cbr 210 ------- 0 1.0 7.0 46 52
- 0.29586 3 5 cbr 210 ------- 0 1.0 7.0 46 52
r 0.29629 3 5 cbr 210 ------- 0 1.0 7.0 43 48
+ 0.29629 5 7 cbr 210 ------- 0 1.0 7.0 43 48
- 0.29629 5 7 cbr 210 ------- 0 1.0 7.0 43 48
r 0.29672 5 7 cbr 210 ------- 0 1.0 7.0 40 44
r 0.29712 2 0 ack 40 ------- 0 6.0 0.0 1 46
+ 0.29712 0 2 tcp 1040 ------- 0 0.0 6.0 3 59
- 0.29712 0 2 tcp 1040 ------- 0 0.0 6.0 3 59
+ 0.29712 0 2 tcp 1040 ------- 0 0.0 6.0 4 60
+ 0.29875 1 2 cbr 210 ------- 0 1.0 7.0 53 61
- 0.29875 1 2 cbr 210 ------- 0 1.0 7.0 53 61
r 0.29918 1 2 cbr 210 ------- 0 1.0 7.0 50 56
+ 0.29918 2 3 cbr 210 ------- 0 1.0 7.0 50 56
- 0.29918 2 3 cbr 210 ------- 0 1.0 7.0 50 56
r 0.29961 2 3 cbr 210 ------- 0 1.0 7.0 47 53
+ 0.29961 3 5 cbr 210 ------- 0 1.0 7.0 47 53
- 0.29961 3 5 cbr 210 ------- 0 1.0 7.0 47 53
r 0.30004 3 5 cbr 210 ------- 0 1.0 7.0 44 49
+ 0.30004 5 7 cbr 210 ------- 0 1.0 7.0 44 49
- 0.30004 5 7 cbr 210 ------- 0 1.0 7.0 44 49
r 0.30016 3 2 ack 40 ------- 0 6.0 0.0 2 51
+ 0.30016 2 0 ack 40 ------- 0 6.0 0.0 2 51
- 0.30016 2 0 ack 40 ------- 0 6.0 0.0 2 51
r 0.30047 5 7 cbr 210 ------- 0 1.0 7.0 41 45
+ 0.3025 1 2 cbr 210 ------- 0 1.0 7.0 54 62
- 0.3025 1 2 cbr 210 ------- 0 1.0 7.0 54 62
r 0.30293 1 2 cbr 210 ------- 0 1.0 7.0 51 57
+ 0.30293 2 3 cbr 210 ------- 0 1.0 7.0 51 57
- 0.30293 2 3 cbr 210 ------- 0 1.0 7.0 51 57
r 0.30336 2 3 cbr 210 ------- 0 1.0 7.0 48 54