+ 0.5 0 4 cbr 500 ------- 0 0.0 3.0 0 0
- 0.5 0 4 cbr 500 ------- 0 0.0 3.0 0 0
+ 0.505 0 4 cbr 500 ------- 0 0.0 3.0 1 1
- 0.505 0 4 cbr 500 ------- 0 0.0 3.0 1 1
+ 0.51 0 4 cbr 500 ------- 0 0.0 3.0 2 2
- 0.51 0 4 cbr 500 ------- 0 0.0 3.0 2 2
r 0.514 0 4 cbr 500 ------- 0 0.0 3.0 0 0
+ 0.514 4 3 cbr 500 ------- 0 0.0 3.0 0 0
- 0.514 4 3 cbr 500 ------- 0 0.0 3.0 0 0
+ 0.515 0 4 cbr 500 ------- 0 0.0 3.0 3 3
- 0.515 0 4 cbr 500 ------- 0 0.0 3.0 3 3
r 0.519 0 4 cbr 500 ------- 0 0.0 3.0 1 1
+ 0.519 4 3 cbr 500 ------- 0 0.0 3.0 1 1
- 0.519 4 3 cbr 500 ------- 0 0.0 3.0 1 1
+ 0.52 0 4 cbr 500 ------- 0 0.0 3.0 4 4
- 0.52 0 4 cbr 500 ------- 0 0.0 3.0 4 4
r 0.524 0 4 cbr 500 ------- 0 0.0 3.0 2 2
+ 0.524 4 3 cbr 500 ------- 0 0.0 3.0 2 2
- 0.524 4 3 cbr 500 ------- 0 0.0 3.0 2 2
+ 0.525 0 4 cbr 500 ------- 0 0.0 3.0 5 5
- 0.525 0 4 cbr 500 ------- 0 0.0 3.0 5 5
r 0.528 4 3 cbr 500 ------- 0 0.0 3.0 0 0
r 0.529 0 4 cbr 500 ------- 0 0.0 3.0 3 3
+ 0.529 4 3 cbr 500 ------- 0 0.0 3.0 3 3
- 0.529 4 3 cbr 500 ------- 0 0.0 3.0 3 3
+ 0.53 0 4 cbr 500 ------- 0 0.0 3.0 6 6
- 0.53 0 4 cbr 500 ------- 0 0.0 3.0 6 6
r 0.533 4 3 cbr 500 ------- 0 0.0 3.0 1 1
r 0.534 0 4 cbr 500 ------- 0 0.0 3.0 4 4
+ 0.534 4 3 cbr 500 ------- 0 0.0 3.0 4 4
- 0.534 4 3 cbr 500 ------- 0 0.0 3.0 4 4
+ 0.535 0 4 cbr 500 ------- 0 0.0 3.0 7 7
- 0.535 0 4 cbr 500 ------- 0 0.0 3.0 7 7
r 0.538 4 3 cbr 500 ------- 0 0.0 3.0 2 2
r 0.539 0 4 cbr 500 ------- 0 0.0 3.0 5 5
+ 0.539 4 3 cbr 500 ------- 0 0.0 3.0 5 5
- 0.539 4 3 cbr 500 ------- 0 0.0 3.0 5 5
+ 0.54 0 4 cbr 500 ------- 0 0.0 3.0 8 8
- 0.54 0 4 cbr 500 ------- 0 0.0 3.0 8 8
r 0.543 4 3 cbr 500 ------- 0 0.0 3.0 3 3
r 0.544 0 4 cbr 500 ------- 0 0.0 3.0 6 6
+ 0.544 4 3 cbr 500 ------- 0 0.0 3.0 6 6
- 0.544 4 3 cbr 500 ------- 0 0.0 3.0 6 6
+ 0.545 0 4 cbr 500 ------- 0 0.0 3.0 9 9
- 0.545 0 4 cbr 500 ------- 0 0.0 3.0 9 9
r 0.548 4 3 cbr 500 ------- 0 0.0 3.0 4 4
r 0.549 0 4 cbr 500 ------- 0 0.0 3.0 7 7
+ 0.549 4 3 cbr 500 ------- 0 0.0 3.0 7 7
- 0.549 4 3 cbr 500 ------- 0 0.0 3.0 7 7
+ 0.55 0 4 cbr 500 ------- 0 0.0 3.0 10 10
- 0.55 0 4 cbr 500 ------- 0 0.0 3.0 10 10
r 0.553 4 3 cbr 500 ------- 0 0.0 3.0 5 5
r 0.554 0 4 cbr 500 ------- 0 0.0 3.0 8 8
+ 0.554 4 3 cbr 500 ------- 0 0.0 3.0 8 8
- 0.554 4 3 cbr 500 ------- 0 0.0 3.0 8 8
+ 0.555 0 4 cbr 500 ------- 0 0.0 3.0 11 11
- 0.555 0 4 cbr 500 ------- 0 0.0 3.0 11 11
r 0.558 4 3 cbr 500 ------- 0 0.0 3.0 6 6
r 0.559 0 4 cbr 500 ------- 0 0.0 3.0 9 9
+ 0.559 4 3 cbr 500 ------- 0 0.0 3.0 9 9
- 0.559 4 3 cbr 500 ------- 0 0.0 3.0 9 9
+ 0.56 0 4 cbr 500 ------- 0 0.0 3.0 12 12
- 0.56 0 4 cbr 500 ------- 0 0.0 3.0 12 12
r 0.563 4 3 cbr 500 ------- 0 0.0 3.0 7 7
r 0.564 0 4 cbr 500 ------- 0 0.0 3.0 10 10
+ 0.564 4 3 cbr 500 ------- 0 0.0 3.0 10 10
- 0.564 4 3 cbr 500 ------- 0 0.0 3.0 10 10
+ 0.565 0 4 cbr 500 ------- 0 0.0 3.0 13 13
- 0.565 0 4 cbr 500 ------- 0 0.0 3.0 13 13
r 0.568 4 3 cbr 500 ------- 0 0.0 3.0 8 8
r 0.569 0 4 cbr 500 ------- 0 0.0 3.0 11 11
+ 0.569 4 3 cbr 500 ------- 0 0.0 3.0 11 11
- 0.569 4 3 cbr 500 ------- 0 0.0 3.0 11 11
+ 0.57 0 4 cbr 500 ------- 0 0.0 3.0 14 14
- 0.57 0 4 cbr 500 ------- 0 0.0 3.0 14 14
r 0.573 4 3 cbr 500 ------- 0 0.0 3.0 9 9
r 0.574 0 4 cbr 500 ------- 0 0.0 3.0 12 12
+ 0.574 4 3 cbr 500 ------- 0 0.0 3.0 12 12
- 0.574 4 3 cbr 500 ------- 0 0.0 3.0 12 12
+ 0.575 0 4 cbr 500 ------- 0 0.0 3.0 15 15
- 0.575 0 4 cbr 500 ------- 0 0.0 3.0 15 15
r 0.578 4 3 cbr 500 ------- 0 0.0 3.0 10 10
r 0.579 0 4 cbr 500 ------- 0 0.0 3.0 13 13
+ 0.579 4 3 cbr 500 ------- 0 0.0 3.0 13 13
- 0.579 4 3 cbr 500 ------- 0 0.0 3.0 13 13
+ 0.58 0 4 cbr 500 ------- 0 0.0 3.0 16 16
- 0.58 0 4 cbr 500 ------- 0 0.0 3.0 16 16
r 0.583 4 3 cbr 500 ------- 0 0.0 3.0 11 11
r 0.584 0 4 cbr 500 ------- 0 0.0 3.0 14 14
+ 0.584 4 3 cbr 500 ------- 0 0.0 3.0 14 14
- 0.584 4 3 cbr 500 ------- 0 0.0 3.0 14 14
+ 0.585 0 4 cbr 500 ------- 0 0.0 3.0 17 17
- 0.585 0 4 cbr 500 ------- 0 0.0 3.0 17 17
r 0.588 4 3 cbr 500 ------- 0 0.0 3.0 12 12
r 0.589 0 4 cbr 500 ------- 0 0.0 3.0 15 15
+ 0.589 4 3 cbr 500 ------- 0 0.0 3.0 15 15
- 0.589 4 3 cbr 500 ------- 0 0.0 3.0 15 15
+ 0.59 0 4 cbr 500 ------- 0 0.0 3.0 18 18
- 0.59 0 4 cbr 500 ------- 0 0.0 3.0 18 18
r 0.593 4 3 cbr 500 ------- 0 0.0 3.0 13 13
r 0.594 0 4 cbr 500 ------- 0 0.0 3.0 16 16
+ 0.594 4 3 cbr 500 ------- 0 0.0 3.0 16 16
- 0.594 4 3 cbr 500 ------- 0 0.0 3.0 16 16
+ 0.595 0 4 cbr 500 ------- 0 0.0 3.0 19 19
- 0.595 0 4 cbr 500 ------- 0 0.0 3.0 19 19
r 0.598 4 3 cbr 500 ------- 0 0.0 3.0 14 14
r 0.599 0 4 cbr 500 ------- 0 0.0 3.0 17 17
+ 0.599 4 3 cbr 500 ------- 0 0.0 3.0 17 17
- 0.599 4 3 cbr 500 ------- 0 0.0 3.0 17 17
+ 0.6 0 4 cbr 500 ------- 0 0.0 3.0 20 20
- 0.6 0 4 cbr 500 ------- 0 0.0 3.0 20 20
r 0.603 4 3 cbr 500 ------- 0 0.0 3.0 15 15
r 0.604 0 4 cbr 500 ------- 0 0.0 3.0 18 18
+ 0.604 4 3 cbr 500 ------- 0 0.0 3.0 18 18
- 0.604 4 3 cbr 500 ------- 0 0.0 3.0 18 18
+ 0.605 0 4 cbr 500 ------- 0 0.0 3.0 21 21
- 0.605 0 4 cbr 500 ------- 0 0.0 3.0 21 21
r 0.608 4 3 cbr 500 ------- 0 0.0 3.0 16 16
r 0.609 0 4 cbr 500 ------- 0 0.0 3.0 19 19
+ 0.609 4 3 cbr 500 ------- 0 0.0 3.0 19 19
- 0.609 4 3 cbr 500 ------- 0 0.0 3.0 19 19
+ 0.61 0 4 cbr 500 ------- 0 0.0 3.0 22 22
- 0.61 0 4 cbr 500 ------- 0 0.0 3.0 22 22
r 0.613 4 3 cbr 500 ------- 0 0.0 3.0 17 17
r 0.614 0 4 cbr 500 ------- 0 0.0 3.0 20 20
+ 0.614 4 3 cbr 500 ------- 0 0.0 3.0 20 20
- 0.614 4 3 cbr 500 ------- 0 0.0 3.0 20 20
+ 0.615 0 4 cbr 500 ------- 0 0.0 3.0 23 23
- 0.615 0 4 cbr 500 ------- 0 0.0 3.0 23 23
r 0.618 4 3 cbr 500 ------- 0 0.0 3.0 18 18
r 0.619 0 4 cbr 500 ------- 0 0.0 3.0 21 21
+ 0.619 4 3 cbr 500 ------- 0 0.0 3.0 21 21
- 0.619 4 3 cbr 500 ------- 0 0.0 3.0 21 21
+ 0.62 0 4 cbr 500 ------- 0 0.0 3.0 24 24
- 0.62 0 4 cbr 500 ------- 0 0.0 3.0 24 24
r 0.623 4 3 cbr 500 ------- 0 0.0 3.0 19 19
r 0.624 0 4 cbr 500 ------- 0 0.0 3.0 22 22
+ 0.624 4 3 cbr 500 ------- 0 0.0 3.0 22 22
- 0.624 4 3 cbr 500 ------- 0 0.0 3.0 22 22
+ 0.625 0 4 cbr 500 ------- 0 0.0 3.0 25 25
- 0.625 0 4 cbr 500 ------- 0 0.0 3.0 25 25
r 0.628 4 3 cbr 500 ------- 0 0.0 3.0 20 20
r 0.629 0 4 cbr 500 ------- 0 0.0 3.0 23 23
+ 0.629 4 3 cbr 500 ------- 0 0.0 3.0 23 23
- 0.629 4 3 cbr 500 ------- 0 0.0 3.0 23 23
+ 0.63 0 4 cbr 500 ------- 0 0.0 3.0 26 26
- 0.63 0 4 cbr 500 ------- 0 0.0 3.0 26 26
r 0.633 4 3 cbr 500 ------- 0 0.0 3.0 21 21
r 0.634 0 4 cbr 500 ------- 0 0.0 3.0 24 24
+ 0.634 4 3 cbr 500 ------- 0 0.0 3.0 24 24
- 0.634 4 3 cbr 500 ------- 0 0.0 3.0 24 24
+ 0.635 0 4 cbr 500 ------- 0 0.0 3.0 27 27
- 0.635 0 4 cbr 500 ------- 0 0.0 3.0 27 27
r 0.638 4 3 cbr 500 ------- 0 0.0 3.0 22 22
r 0.639 0 4 cbr 500 ------- 0 0.0 3.0 25 25
+ 0.639 4 3 cbr 500 ------- 0 0.0 3.0 25 25
- 0.639 4 3 cbr 500 ------- 0 0.0 3.0 25 25
+ 0.64 0 4 cbr 500 ------- 0 0.0 3.0 28 28
- 0.64 0 4 cbr 500 ------- 0 0.0 3.0 28 28
r 0.643 4 3 cbr 500 ------- 0 0.0 3.0 23 23
r 0.644 0 4 cbr 500 ------- 0 0.0 3.0 26 26
+ 0.644 4 3 cbr 500 ------- 0 0.0 3.0 26 26
- 0.644 4 3 cbr 500 ------- 0 0.0 3.0 26 26
+ 0.645 0 4 cbr 500 ------- 0 0.0 3.0 29 29
- 0.645 0 4 cbr 500 ------- 0 0.0 3.0 29 29
r 0.648 4 3 cbr 500 ------- 0 0.0 3.0 24 24
r 0.649 0 4 cbr 500 ------- 0 0.0 3.0 27 27
+ 0.649 4 3 cbr 500 ------- 0 0.0 3.0 27 27
- 0.649 4 3 cbr 500 ------- 0 0.0 3.0 27 27
+ 0.65 0 4 cbr 500 ------- 0 0.0 3.0 30 30
- 0.65 0 4 cbr 500 ------- 0 0.0 3.0 30 30
r 0.653 4 3 cbr 500 ------- 0 0.0 3.0 25 25
r 0.654 0 4 cbr 500 ------- 0 0.0 3.0 28 28
+ 0.654 4 3 cbr 500 ------- 0 0.0 3.0 28 28
- 0.654 4 3 cbr 500 ------- 0 0.0 3.0 28 28
+ 0.655 0 4 cbr 500 ------- 0 0.0 3.0 31 31
- 0.655 0 4 cbr 500 ------- 0 0.0 3.0 31 31
r 0.658 4 3 cbr 500 ------- 0 0.0 3.0 26 26
r 0.659 0 4 cbr 500 ------- 0 0.0 3.0 29 29
+ 0.659 4 3 cbr 500 ------- 0 0.0 3.0 29 29
- 0.659 4 3 cbr 500 ------- 0 0.0 3.0 29 29
+ 0.66 0 4 cbr 500 ------- 0 0.0 3.0 32 32
- 0.66 0 4 cbr 500 ------- 0 0.0 3.0 32 32
r 0.663 4 3 cbr 500 ------- 0 0.0 3.0 27 27
r 0.664 0 4 cbr 500 ------- 0 0.0 3.0 30 30
+ 0.664 4 3 cbr 500 ------- 0 0.0 3.0 30 30
- 0.664 4 3 cbr 500 ------- 0 0.0 3.0 30 30
+ 0.665 0 4 cbr 500 ------- 0 0.0 3.0 33 33
- 0.665 0 4 cbr 500 ------- 0 0.0 3.0 33 33
r 0.668 4 3 cbr 500 ------- 0 0.0 3.0 28 28
r 0.669 0 4 cbr 500 ------- 0 0.0 3.0 31 31
+ 0.669 4 3 cbr 500 ------- 0 0.0 3.0 31 31
- 0.669 4 3 cbr 500 ------- 0 0.0 3.0 31 31
+ 0.67 0 4 cbr 500 ------- 0 0.0 3.0 34 34
- 0.67 0 4 cbr 500 ------- 0 0.0 3.0 34 34
r 0.673 4 3 cbr 500 ------- 0 0.0 3.0 29 29
r 0.674 0 4 cbr 500 ------- 0 0.0 3.0 32 32
+ 0.674 4 3 cbr 500 ------- 0 0.0 3.0 32 32
- 0.674 4 3 cbr 500 ------- 0 0.0 3.0 32 32
+ 0.675 0 4 cbr 500 ------- 0 0.0 3.0 35 35
- 0.675 0 4 cbr 500 ------- 0 0.0 3.0 35 35
r 0.678 4 3 cbr 500 ------- 0 0.0 3.0 30 30
r 0.679 0 4 cbr 500 ------- 0 0.0 3.0 33 33
+ 0.679 4 3 cbr 500 ------- 0 0.0 3.0 33 33
- 0.679 4 3 cbr 500 ------- 0 0.0 3.0 33 33
+ 0.68 0 4 cbr 500 ------- 0 0.0 3.0 36 36
- 0.68 0 4 cbr 500 ------- 0 0.0 3.0 36 36
r 0.683 4 3 cbr 500 ------- 0 0.0 3.0 31 31
r 0.684 0 4 cbr 500 ------- 0 0.0 3.0 34 34
+ 0.684 4 3 cbr 500 ------- 0 0.0 3.0 34 34
- 0.684 4 3 cbr 500 ------- 0 0.0 3.0 34 34
+ 0.685 0 4 cbr 500 ------- 0 0.0 3.0 37 37
- 0.685 0 4 cbr 500 ------- 0 0.0 3.0 37 37
r 0.688 4 3 cbr 500 ------- 0 0.0 3.0 32 32
r 0.689 0 4 cbr 500 ------- 0 0.0 3.0 35 35
+ 0.689 4 3 cbr 500 ------- 0 0.0 3.0 35 35
- 0.689 4 3 cbr 500 ------- 0 0.0 3.0 35 35
+ 0.69 0 4 cbr 500 ------- 0 0.0 3.0 38 38
- 0.69 0 4 cbr 500 ------- 0 0.0 3.0 38 38
r 0.693 4 3 cbr 500 ------- 0 0.0 3.0 33 33
r 0.694 0 4 cbr 500 ------- 0 0.0 3.0 36 36
+ 0.694 4 3 cbr 500 ------- 0 0.0 3.0 36 36
- 0.694 4 3 cbr 500 ------- 0 0.0 3.0 36 36
+ 0.695 0 4 cbr 500 ------- 0 0.0 3.0 39 39
- 0.695 0 4 cbr 500 ------- 0 0.0 3.0 39 39
r 0.698 4 3 cbr 500 ------- 0 0.0 3.0 34 34
r 0.699 0 4 cbr 500 ------- 0 0.0 3.0 37 37
+ 0.699 4 3 cbr 500 ------- 0 0.0 3.0 37 37
- 0.699 4 3 cbr 500 ------- 0 0.0 3.0 37 37
+ 0.7 0 4 cbr 500 ------- 0 0.0 3.0 40 40
- 0.7 0 4 cbr 500 ------- 0 0.0 3.0 40 40
r 0.703 4 3 cbr 500 ------- 0 0.0 3.0 35 35
r 0.704 0 4 cbr 500 ------- 0 0.0 3.0 38 38
+ 0.704 4 3 cbr 500 ------- 0 0.0 3.0 38 38
- 0.704 4 3 cbr 500 ------- 0 0.0 3.0 38 38
+ 0.705 0 4 cbr 500 ------- 0 0.0 3.0 41 41
- 0.705 0 4 cbr 500 ------- 0 0.0 3.0 41 41
r 0.708 4 3 cbr 500 ------- 0 0.0 3.0 36 36
r 0.709 0 4 cbr 500 ------- 0 0.0 3.0 39 39
+ 0.709 4 3 cbr 500 ------- 0 0.0 3.0 39 39
- 0.709 4 3 cbr 500 ------- 0 0.0 3.0 39 39
+ 0.71 0 4 cbr 500 ------- 0 0.0 3.0 42 42
- 0.71 0 4 cbr 500 ------- 0 0.0 3.0 42 42
r 0.713 4 3 cbr 500 ------- 0 0.0 3.0 37 37
r 0.714 0 4 cbr 500 ------- 0 0.0 3.0 40 40
+ 0.714 4 3 cbr 500 ------- 0 0.0 3.0 40 40
- 0.714 4 3 cbr 500 ------- 0 0.0 3.0 40 40
+ 0.715 0 4 cbr 500 ------- 0 0.0 3.0 43 43
- 0.715 0 4 cbr 500 ------- 0 0.0 3.0 43 43
r 0.718 4 3 cbr 500 ------- 0 0.0 3.0 38 38
r 0.719 0 4 cbr 500 ------- 0 0.0 3.0 41 41
+ 0.719 4 3 cbr 500 ------- 0 0.0 3.0 41 41
- 0.719 4 3 cbr 500 ------- 0 0.0 3.0 41 41
+ 0.72 0 4 cbr 500 ------- 0 0.0 3.0 44 44
- 0.72 0 4 cbr 500 ------- 0 0.0 3.0 44 44
r 0.723 4 3 cbr 500 ------- 0 0.0 3.0 39 39
r 0.724 0 4 cbr 500 ------- 0 0.0 3.0 42 42
+ 0.724 4 3 cbr 500 ------- 0 0.0 3.0 42 42
- 0.724 4 3 cbr 500 ------- 0 0.0 3.0 42 42
+ 0.725 0 4 cbr 500 ------- 0 0.0 3.0 45 45
- 0.725 0 4 cbr 500 ------- 0 0.0 3.0 45 45
r 0.728 4 3 cbr 500 ------- 0 0.0 3.0 40 40
r 0.729 0 4 cbr 500 ------- 0 0.0 3.0 43 43
+ 0.729 4 3 cbr 500 ------- 0 0.0 3.0 43 43
- 0.729 4 3 cbr 500 ------- 0 0.0 3.0 43 43
+ 0.73 0 4 cbr 500 ------- 0 0.0 3.0 46 46
- 0.73 0 4 cbr 500 ------- 0 0.0 3.0 46 46
r 0.733 4 3 cbr 500 ------- 0 0.0 3.0 41 41
r 0.734 0 4 cbr 500 ------- 0 0.0 3.0 44 44
+ 0.734 4 3 cbr 500 ------- 0 0.0 3.0 44 44
- 0.734 4 3 cbr 500 ------- 0 0.0 3.0 44 44
+ 0.735 0 4 cbr 500 ------- 0 0.0 3.0 47 47
- 0.735 0 4 cbr 500 ------- 0 0.0 3.0 47 47
r 0.738 4 3 cbr 500 ------- 0 0.0 3.0 42 42
r 0.739 0 4 cbr 500 ------- 0 0.0 3.0 45 45
+ 0.739 4 3 cbr 500 ------- 0 0.0 3.0 45 45
- 0.739 4 3 cbr 500 ------- 0 0.0 3.0 45 45
+ 0.74 0 4 cbr 500 ------- 0 0.0 3.0 48 48
- 0.74 0 4 cbr 500 ------- 0 0.0 3.0 48 48
r 0.743 4 3 cbr 500 ------- 0 0.0 3.0 43 43
r 0.744 0 4 cbr 500 ------- 0 0.0 3.0 46 46
+ 0.744 4 3 cbr 500 ------- 0 0.0 3.0 46 46
- 0.744 4 3 cbr 500 ------- 0 0.0 3.0 46 46
+ 0.745 0 4 cbr 500 ------- 0 0.0 3.0 49 49
- 0.745 0 4 cbr 500 ------- 0 0.0 3.0 49 49
r 0.748 4 3 cbr 500 ------- 0 0.0 3.0 44 44
r 0.749 0 4 cbr 500 ------- 0 0.0 3.0 47 47
+ 0.749 4 3 cbr 500 ------- 0 0.0 3.0 47 47
- 0.749 4 3 cbr 500 ------- 0 0.0 3.0 47 47
+ 0.75 0 4 cbr 500 ------- 0 0.0 3.0 50 50
- 0.75 0 4 cbr 500 ------- 0 0.0 3.0 50 50
r 0.753 4 3 cbr 500 ------- 0 0.0 3.0 45 45
r 0.754 0 4 cbr 500 ------- 0 0.0 3.0 48 48
+ 0.754 4 3 cbr 500 ------- 0 0.0 3.0 48 48
- 0.754 4 3 cbr 500 ------- 0 0.0 3.0 48 48
+ 0.755 0 4 cbr 500 ------- 0 0.0 3.0 51 51
- 0.755 0 4 cbr 500 ------- 0 0.0 3.0 51 51
r 0.758 4 3 cbr 500 ------- 0 0.0 3.0 46 46
r 0.759 0 4 cbr 500 ------- 0 0.0 3.0 49 49
+ 0.759 4 3 cbr 500 ------- 0 0.0 3.0 49 49
- 0.759 4 3 cbr 500 ------- 0 0.0 3.0 49 49
+ 0.76 0 4 cbr 500 ------- 0 0.0 3.0 52 52
- 0.76 0 4 cbr 500 ------- 0 0.0 3.0 52 52
r 0.763 4 3 cbr 500 ------- 0 0.0 3.0 47 47
r 0.764 0 4 cbr 500 ------- 0 0.0 3.0 50 50
+ 0.764 4 3 cbr 500 ------- 0 0.0 3.0 50 50
- 0.764 4 3 cbr 500 ------- 0 0.0 3.0 50 50
+ 0.765 0 4 cbr 500 ------- 0 0.0 3.0 53 53
- 0.765 0 4 cbr 500 ------- 0 0.0 3.0 53 53
r 0.768 4 3 cbr 500 ------- 0 0.0 3.0 48 48
r 0.769 0 4 cbr 500 ------- 0 0.0 3.0 51 51
+ 0.769 4 3 cbr 500 ------- 0 0.0 3.0 51 51
- 0.769 4 3 cbr 500 ------- 0 0.0 3.0 51 51
+ 0.77 0 4 cbr 500 ------- 0 0.0 3.0 54 54
- 0.77 0 4 cbr 500 ------- 0 0.0 3.0 54 54
r 0.773 4 3 cbr 500 ------- 0 0.0 3.0 49 49
r 0.774 0 4 cbr 500 ------- 0 0.0 3.0 52 52
+ 0.774 4 3 cbr 500 ------- 0 0.0 3.0 52 52
- 0.774 4 3 cbr 500 ------- 0 0.0 3.0 52 52
+ 0.775 0 4 cbr 500 ------- 0 0.0 3.0 55 55
- 0.775 0 4 cbr 500 ------- 0 0.0 3.0 55 55
r 0.778 4 3 cbr 500 ------- 0 0.0 3.0 50 50
r 0.779 0 4 cbr 500 ------- 0 0.0 3.0 53 53
+ 0.779 4 3 cbr 500 ------- 0 0.0 3.0 53 53
- 0.779 4 3 cbr 500 ------- 0 0.0 3.0 53 53
+ 0.78 0 4 cbr 500 ------- 0 0.0 3.0 56 56
- 0.78 0 4 cbr 500 ------- 0 0.0 3.0 56 56
r 0.783 4 3 cbr 500 ------- 0 0.0 3.0 51 51
r 0.784 0 4 cbr 500 ------- 0 0.0 3.0 54 54
+ 0.784 4 3 cbr 500 ------- 0 0.0 3.0 54 54
- 0.784 4 3 cbr 500 ------- 0 0.0 3.0 54 54
+ 0.785 0 4 cbr 500 ------- 0 0.0 3.0 57 57
- 0.785 0 4 cbr 500 ------- 0 0.0 3.0 57 57
r 0.788 4 3 cbr 500 ------- 0 0.0 3.0 52 52
r 0.789 0 4 cbr 500 ------- 0 0.0 3.0 55 55
+ 0.789 4 3 cbr 500 ------- 0 0.0 3.0 55 55
- 0.789 4 3 cbr 500 ------- 0 0.0 3.0 55 55
+ 0.79 0 4 cbr 500 ------- 0 0.0 3.0 58 58
- 0.79 0 4 cbr 500 ------- 0 0.0 3.0 58 58
r 0.793 4 3 cbr 500 ------- 0 0.0 3.0 53 53
r 0.794 0 4 cbr 500 ------- 0 0.0 3.0 56 56
+ 0.794 4 3 cbr 500 ------- 0 0.0 3.0 56 56
- 0.794 4 3 cbr 500 ------- 0 0.0 3.0 56 56
+ 0.795 0 4 cbr 500 ------- 0 0.0 3.0 59 59
- 0.795 0 4 cbr 500 ------- 0 0.0 3.0 59 59
r 0.798 4 3 cbr 500 ------- 0 0.0 3.0 54 54
r 0.799 0 4 cbr 500 ------- 0 0.0 3.0 57 57
+ 0.799 4 3 cbr 500 ------- 0 0.0 3.0 57 57
- 0.799 4 3 cbr 500 ------- 0 0.0 3.0 57 57
+ 0.8 0 4 cbr 500 ------- 0 0.0 3.0 60 60
- 0.8 0 4 cbr 500 ------- 0 0.0 3.0 60 60
r 0.803 4 3 cbr 500 ------- 0 0.0 3.0 55 55
r 0.804 0 4 cbr 500 ------- 0 0.0 3.0 58 58
+ 0.804 4 3 cbr 500 ------- 0 0.0 3.0 58 58
- 0.804 4 3 cbr 500 ------- 0 0.0 3.0 58 58
+ 0.805 0 4 cbr 500 ------- 0 0.0 3.0 61 61
- 0.805 0 4 cbr 500 ------- 0 0.0 3.0 61 61
r 0.808 4 3 cbr 500 ------- 0 0.0 3.0 56 56
r 0.809 0 4 cbr 500 ------- 0 0.0 3.0 59 59
+ 0.809 4 3 cbr 500 ------- 0 0.0 3.0 59 59
- 0.809 4 3 cbr 500 ------- 0 0.0 3.0 59 59
+ 0.81 0 4 cbr 500 ------- 0 0.0 3.0 62 62
- 0.81 0 4 cbr 500 ------- 0 0.0 3.0 62 62
r 0.813 4 3 cbr 500 ------- 0 0.0 3.0 57 57
r 0.814 0 4 cbr 500 ------- 0 0.0 3.0 60 60
+ 0.814 4 3 cbr 500 ------- 0 0.0 3.0 60 60
- 0.814 4 3 cbr 500 ------- 0 0.0 3.0 60 60
+ 0.815 0 4 cbr 500 ------- 0 0.0 3.0 63 63
- 0.815 0 4 cbr 500 ------- 0 0.0 3.0 63 63
r 0.818 4 3 cbr 500 ------- 0 0.0 3.0 58 58
r 0.819 0 4 cbr 500 ------- 0 0.0 3.0 61 61
+ 0.819 4 3 cbr 500 ------- 0 0.0 3.0 61 61
- 0.819 4 3 cbr 500 ------- 0 0.0 3.0 61 61
+ 0.82 0 4 cbr 500 ------- 0 0.0 3.0 64 64
- 0.82 0 4 cbr 500 ------- 0 0.0 3.0 64 64
r 0.823 4 3 cbr 500 ------- 0 0.0 3.0 59 59
r 0.824 0 4 cbr 500 ------- 0 0.0 3.0 62 62
+ 0.824 4 3 cbr 500 ------- 0 0.0 3.0 62 62
- 0.824 4 3 cbr 500 ------- 0 0.0 3.0 62 62
+ 0.825 0 4 cbr 500 ------- 0 0.0 3.0 65 65
- 0.825 0 4 cbr 500 ------- 0 0.0 3.0 65 65
r 0.828 4 3 cbr 500 ------- 0 0.0 3.0 60 60
r 0.829 0 4 cbr 500 ------- 0 0.0 3.0 63 63
+ 0.829 4 3 cbr 500 ------- 0 0.0 3.0 63 63
- 0.829 4 3 cbr 500 ------- 0 0.0 3.0 63 63
+ 0.83 0 4 cbr 500 ------- 0 0.0 3.0 66 66
- 0.83 0 4 cbr 500 ------- 0 0.0 3.0 66 66
r 0.833 4 3 cbr 500 ------- 0 0.0 3.0 61 61
r 0.834 0 4 cbr 500 ------- 0 0.0 3.0 64 64
+ 0.834 4 3 cbr 500 ------- 0 0.0 3.0 64 64
- 0.834 4 3 cbr 500 ------- 0 0.0 3.0 64 64
+ 0.835 0 4 cbr 500 ------- 0 0.0 3.0 67 67
- 0.835 0 4 cbr 500 ------- 0 0.0 3.0 67 67
r 0.838 4 3 cbr 500 ------- 0 0.0 3.0 62 62
r 0.839 0 4 cbr 500 ------- 0 0.0 3.0 65 65
+ 0.839 4 3 cbr 500 ------- 0 0.0 3.0 65 65
- 0.839 4 3 cbr 500 ------- 0 0.0 3.0 65 65
+ 0.84 0 4 cbr 500 ------- 0 0.0 3.0 68 68
- 0.84 0 4 cbr 500 ------- 0 0.0 3.0 68 68
r 0.843 4 3 cbr 500 ------- 0 0.0 3.0 63 63
r 0.844 0 4 cbr 500 ------- 0 0.0 3.0 66 66
+ 0.844 4 3 cbr 500 ------- 0 0.0 3.0 66 66
- 0.844 4 3 cbr 500 ------- 0 0.0 3.0 66 66
+ 0.845 0 4 cbr 500 ------- 0 0.0 3.0 69 69
- 0.845 0 4 cbr 500 ------- 0 0.0 3.0 69 69
r 0.848 4 3 cbr 500 ------- 0 0.0 3.0 64 64
r 0.849 0 4 cbr 500 ------- 0 0.0 3.0 67 67
+ 0.849 4 3 cbr 500 ------- 0 0.0 3.0 67 67
- 0.849 4 3 cbr 500 ------- 0 0.0 3.0 67 67
+ 0.85 0 4 cbr 500 ------- 0 0.0 3.0 70 70
- 0.85 0 4 cbr 500 ------- 0 0.0 3.0 70 70
r 0.853 4 3 cbr 500 ------- 0 0.0 3.0 65 65
r 0.854 0 4 cbr 500 ------- 0 0.0 3.0 68 68
+ 0.854 4 3 cbr 500 ------- 0 0.0 3.0 68 68
- 0.854 4 3 cbr 500 ------- 0 0.0 3.0 68 68
+ 0.855 0 4 cbr 500 ------- 0 0.0 3.0 71 71
- 0.855 0 4 cbr 500 ------- 0 0.0 3.0 71 71
r 0.858 4 3 cbr 500 ------- 0 0.0 3.0 66 66
r 0.859 0 4 cbr 500 ------- 0 0.0 3.0 69 69
+ 0.859 4 3 cbr 500 ------- 0 0.0 3.0 69 69
- 0.859 4 3 cbr 500 ------- 0 0.0 3.0 69 69
+ 0.86 0 4 cbr 500 ------- 0 0.0 3.0 72 72
- 0.86 0 4 cbr 500 ------- 0 0.0 3.0 72 72
r 0.863 4 3 cbr 500 ------- 0 0.0 3.0 67 67
r 0.864 0 4 cbr 500 ------- 0 0.0 3.0 70 70
+ 0.864 4 3 cbr 500 ------- 0 0.0 3.0 70 70
- 0.864 4 3 cbr 500 ------- 0 0.0 3.0 70 70
+ 0.865 0 4 cbr 500 ------- 0 0.0 3.0 73 73
- 0.865 0 4 cbr 500 ------- 0 0.0 3.0 73 73
r 0.868 4 3 cbr 500 ------- 0 0.0 3.0 68 68
r 0.869 0 4 cbr 500 ------- 0 0.0 3.0 71 71
+ 0.869 4 3 cbr 500 ------- 0 0.0 3.0 71 71
- 0.869 4 3 cbr 500 ------- 0 0.0 3.0 71 71
+ 0.87 0 4 cbr 500 ------- 0 0.0 3.0 74 74
- 0.87 0 4 cbr 500 ------- 0 0.0 3.0 74 74
r 0.873 4 3 cbr 500 ------- 0 0.0 3.0 69 69
r 0.874 0 4 cbr 500 ------- 0 0.0 3.0 72 72
+ 0.874 4 3 cbr 500 ------- 0 0.0 3.0 72 72
- 0.874 4 3 cbr 500 ------- 0 0.0 3.0 72 72
+ 0.875 0 4 cbr 500 ------- 0 0.0 3.0 75 75
- 0.875 0 4 cbr 500 ------- 0 0.0 3.0 75 75
r 0.878 4 3 cbr 500 ------- 0 0.0 3.0 70 70
r 0.879 0 4 cbr 500 ------- 0 0.0 3.0 73 73
+ 0.879 4 3 cbr 500 ------- 0 0.0 3.0 73 73
- 0.879 4 3 cbr 500 ------- 0 0.0 3.0 73 73
+ 0.88 0 4 cbr 500 ------- 0 0.0 3.0 76 76
- 0.88 0 4 cbr 500 ------- 0 0.0 3.0 76 76
r 0.883 4 3 cbr 500 ------- 0 0.0 3.0 71 71
r 0.884 0 4 cbr 500 ------- 0 0.0 3.0 74 74
+ 0.884 4 3 cbr 500 ------- 0 0.0 3.0 74 74
- 0.884 4 3 cbr 500 ------- 0 0.0 3.0 74 74
+ 0.885 0 4 cbr 500 ------- 0 0.0 3.0 77 77
- 0.885 0 4 cbr 500 ------- 0 0.0 3.0 77 77
r 0.888 4 3 cbr 500 ------- 0 0.0 3.0 72 72
r 0.889 0 4 cbr 500 ------- 0 0.0 3.0 75 75
+ 0.889 4 3 cbr 500 ------- 0 0.0 3.0 75 75
- 0.889 4 3 cbr 500 ------- 0 0.0 3.0 75 75
+ 0.89 0 4 cbr 500 ------- 0 0.0 3.0 78 78
- 0.89 0 4 cbr 500 ------- 0 0.0 3.0 78 78
r 0.893 4 3 cbr 500 ------- 0 0.0 3.0 73 73
r 0.894 0 4 cbr 500 ------- 0 0.0 3.0 76 76
+ 0.894 4 3 cbr 500 ------- 0 0.0 3.0 76 76
- 0.894 4 3 cbr 500 ------- 0 0.0 3.0 76 76
+ 0.895 0 4 cbr 500 ------- 0 0.0 3.0 79 79
- 0.895 0 4 cbr 500 ------- 0 0.0 3.0 79 79
r 0.898 4 3 cbr 500 ------- 0 0.0 3.0 74 74
r 0.899 0 4 cbr 500 ------- 0 0.0 3.0 77 77
+ 0.899 4 3 cbr 500 ------- 0 0.0 3.0 77 77
- 0.899 4 3 cbr 500 ------- 0 0.0 3.0 77 77
+ 0.9 0 4 cbr 500 ------- 0 0.0 3.0 80 80
- 0.9 0 4 cbr 500 ------- 0 0.0 3.0 80 80
r 0.903 4 3 cbr 500 ------- 0 0.0 3.0 75 75
r 0.904 0 4 cbr 500 ------- 0 0.0 3.0 78 78
+ 0.904 4 3 cbr 500 ------- 0 0.0 3.0 78 78
- 0.904 4 3 cbr 500 ------- 0 0.0 3.0 78 78
+ 0.905 0 4 cbr 500 ------- 0 0.0 3.0 81 81
- 0.905 0 4 cbr 500 ------- 0 0.0 3.0 81 81
r 0.908 4 3 cbr 500 ------- 0 0.0 3.0 76 76
r 0.909 0 4 cbr 500 ------- 0 0.0 3.0 79 79
+ 0.909 4 3 cbr 500 ------- 0 0.0 3.0 79 79
- 0.909 4 3 cbr 500 ------- 0 0.0 3.0 79 79
+ 0.91 0 4 cbr 500 ------- 0 0.0 3.0 82 82
- 0.91 0 4 cbr 500 ------- 0 0.0 3.0 82 82
r 0.913 4 3 cbr 500 ------- 0 0.0 3.0 77 77
r 0.914 0 4 cbr 500 ------- 0 0.0 3.0 80 80
+ 0.914 4 3 cbr 500 ------- 0 0.0 3.0 80 80
- 0.914 4 3 cbr 500 ------- 0 0.0 3.0 80 80
+ 0.915 0 4 cbr 500 ------- 0 0.0 3.0 83 83
- 0.915 0 4 cbr 500 ------- 0 0.0 3.0 83 83
r 0.918 4 3 cbr 500 ------- 0 0.0 3.0 78 78
r 0.919 0 4 cbr 500 ------- 0 0.0 3.0 81 81
+ 0.919 4 3 cbr 500 ------- 0 0.0 3.0 81 81
- 0.919 4 3 cbr 500 ------- 0 0.0 3.0 81 81
+ 0.92 0 4 cbr 500 ------- 0 0.0 3.0 84 84
- 0.92 0 4 cbr 500 ------- 0 0.0 3.0 84 84
r 0.923 4 3 cbr 500 ------- 0 0.0 3.0 79 79
r 0.924 0 4 cbr 500 ------- 0 0.0 3.0 82 82
+ 0.924 4 3 cbr 500 ------- 0 0.0 3.0 82 82
- 0.924 4 3 cbr 500 ------- 0 0.0 3.0 82 82
+ 0.925 0 4 cbr 500 ------- 0 0.0 3.0 85 85
- 0.925 0 4 cbr 500 ------- 0 0.0 3.0 85 85
r 0.928 4 3 cbr 500 ------- 0 0.0 3.0 80 80
r 0.929 0 4 cbr 500 ------- 0 0.0 3.0 83 83
+ 0.929 4 3 cbr 500 ------- 0 0.0 3.0 83 83
- 0.929 4 3 cbr 500 ------- 0 0.0 3.0 83 83
+ 0.93 0 4 cbr 500 ------- 0 0.0 3.0 86 86
- 0.93 0 4 cbr 500 ------- 0 0.0 3.0 86 86
r 0.933 4 3 cbr 500 ------- 0 0.0 3.0 81 81
r 0.934 0 4 cbr 500 ------- 0 0.0 3.0 84 84
+ 0.934 4 3 cbr 500 ------- 0 0.0 3.0 84 84
- 0.934 4 3 cbr 500 ------- 0 0.0 3.0 84 84
+ 0.935 0 4 cbr 500 ------- 0 0.0 3.0 87 87
- 0.935 0 4 cbr 500 ------- 0 0.0 3.0 87 87
r 0.938 4 3 cbr 500 ------- 0 0.0 3.0 82 82
r 0.939 0 4 cbr 500 ------- 0 0.0 3.0 85 85
+ 0.939 4 3 cbr 500 ------- 0 0.0 3.0 85 85
- 0.939 4 3 cbr 500 ------- 0 0.0 3.0 85 85
+ 0.94 0 4 cbr 500 ------- 0 0.0 3.0 88 88
- 0.94 0 4 cbr 500 ------- 0 0.0 3.0 88 88
r 0.943 4 3 cbr 500 ------- 0 0.0 3.0 83 83
r 0.944 0 4 cbr 500 ------- 0 0.0 3.0 86 86
+ 0.944 4 3 cbr 500 ------- 0 0.0 3.0 86 86
- 0.944 4 3 cbr 500 ------- 0 0.0 3.0 86 86
+ 0.945 0 4 cbr 500 ------- 0 0.0 3.0 89 89
- 0.945 0 4 cbr 500 ------- 0 0.0 3.0 89 89
r 0.948 4 3 cbr 500 ------- 0 0.0 3.0 84 84
r 0.949 0 4 cbr 500 ------- 0 0.0 3.0 87 87
+ 0.949 4 3 cbr 500 ------- 0 0.0 3.0 87 87
- 0.949 4 3 cbr 500 ------- 0 0.0 3.0 87 87
+ 0.95 0 4 cbr 500 ------- 0 0.0 3.0 90 90
- 0.95 0 4 cbr 500 ------- 0 0.0 3.0 90 90
r 0.953 4 3 cbr 500 ------- 0 0.0 3.0 85 85
r 0.954 0 4 cbr 500 ------- 0 0.0 3.0 88 88
+ 0.954 4 3 cbr 500 ------- 0 0.0 3.0 88 88
- 0.954 4 3 cbr 500 ------- 0 0.0 3.0 88 88
+ 0.955 0 4 cbr 500 ------- 0 0.0 3.0 91 91
- 0.955 0 4 cbr 500 ------- 0 0.0 3.0 91 91
r 0.958 4 3 cbr 500 ------- 0 0.0 3.0 86 86
r 0.959 0 4 cbr 500 ------- 0 0.0 3.0 89 89
+ 0.959 4 3 cbr 500 ------- 0 0.0 3.0 89 89
- 0.959 4 3 cbr 500 ------- 0 0.0 3.0 89 89
+ 0.96 0 4 cbr 500 ------- 0 0.0 3.0 92 92
- 0.96 0 4 cbr 500 ------- 0 0.0 3.0 92 92
r 0.963 4 3 cbr 500 ------- 0 0.0 3.0 87 87
r 0.964 0 4 cbr 500 ------- 0 0.0 3.0 90 90
+ 0.964 4 3 cbr 500 ------- 0 0.0 3.0 90 90
- 0.964 4 3 cbr 500 ------- 0 0.0 3.0 90 90
+ 0.965 0 4 cbr 500 ------- 0 0.0 3.0 93 93
- 0.965 0 4 cbr 500 ------- 0 0.0 3.0 93 93
r 0.968 4 3 cbr 500 ------- 0 0.0 3.0 88 88
r 0.969 0 4 cbr 500 ------- 0 0.0 3.0 91 91
+ 0.969 4 3 cbr 500 ------- 0 0.0 3.0 91 91
- 0.969 4 3 cbr 500 ------- 0 0.0 3.0 91 91
+ 0.97 0 4 cbr 500 ------- 0 0.0 3.0 94 94
- 0.97 0 4 cbr 500 ------- 0 0.0 3.0 94 94
r 0.973 4 3 cbr 500 ------- 0 0.0 3.0 89 89
r 0.974 0 4 cbr 500 ------- 0 0.0 3.0 92 92
+ 0.974 4 3 cbr 500 ------- 0 0.0 3.0 92 92
- 0.974 4 3 cbr 500 ------- 0 0.0 3.0 92 92
+ 0.975 0 4 cbr 500 ------- 0 0.0 3.0 95 95
- 0.975 0 4 cbr 500 ------- 0 0.0 3.0 95 95
r 0.978 4 3 cbr 500 ------- 0 0.0 3.0 90 90
r 0.979 0 4 cbr 500 ------- 0 0.0 3.0 93 93
+ 0.979 4 3 cbr 500 ------- 0 0.0 3.0 93 93
- 0.979 4 3 cbr 500 ------- 0 0.0 3.0 93 93
+ 0.98 0 4 cbr 500 ------- 0 0.0 3.0 96 96
- 0.98 0 4 cbr 500 ------- 0 0.0 3.0 96 96
r 0.983 4 3 cbr 500 ------- 0 0.0 3.0 91 91
r 0.984 0 4 cbr 500 ------- 0 0.0 3.0 94 94
+ 0.984 4 3 cbr 500 ------- 0 0.0 3.0 94 94
- 0.984 4 3 cbr 500 ------- 0 0.0 3.0 94 94
+ 0.985 0 4 cbr 500 ------- 0 0.0 3.0 97 97
- 0.985 0 4 cbr 500 ------- 0 0.0 3.0 97 97
r 0.988 4 3 cbr 500 ------- 0 0.0 3.0 92 92
r 0.989 0 4 cbr 500 ------- 0 0.0 3.0 95 95
+ 0.989 4 3 cbr 500 ------- 0 0.0 3.0 95 95
- 0.989 4 3 cbr 500 ------- 0 0.0 3.0 95 95
+ 0.99 0 4 cbr 500 ------- 0 0.0 3.0 98 98
- 0.99 0 4 cbr 500 ------- 0 0.0 3.0 98 98
r 0.993 4 3 cbr 500 ------- 0 0.0 3.0 93 93
r 0.994 0 4 cbr 500 ------- 0 0.0 3.0 96 96
+ 0.994 4 3 cbr 500 ------- 0 0.0 3.0 96 96
- 0.994 4 3 cbr 500 ------- 0 0.0 3.0 96 96
+ 0.995 0 4 cbr 500 ------- 0 0.0 3.0 99 99
- 0.995 0 4 cbr 500 ------- 0 0.0 3.0 99 99
r 0.998 4 3 cbr 500 ------- 0 0.0 3.0 94 94
r 0.999 0 4 cbr 500 ------- 0 0.0 3.0 97 97
+ 0.999 4 3 cbr 500 ------- 0 0.0 3.0 97 97
- 0.999 4 3 cbr 500 ------- 0 0.0 3.0 97 97
+ 1 0 4 cbr 500 ------- 0 0.0 3.0 100 100
- 1 0 4 cbr 500 ------- 0 0.0 3.0 100 100
r 1.003 4 3 cbr 500 ------- 0 0.0 3.0 95 95
r 1.004 0 4 cbr 500 ------- 0 0.0 3.0 98 98
+ 1.004 4 3 cbr 500 ------- 0 0.0 3.0 98 98
- 1.004 4 3 cbr 500 ------- 0 0.0 3.0 98 98
+ 1.005 0 4 cbr 500 ------- 0 0.0 3.0 101 101
- 1.005 0 4 cbr 500 ------- 0 0.0 3.0 101 101
r 1.008 4 3 cbr 500 ------- 0 0.0 3.0 96 96
r 1.009 0 4 cbr 500 ------- 0 0.0 3.0 99 99
+ 1.009 4 3 cbr 500 ------- 0 0.0 3.0 99 99
- 1.009 4 3 cbr 500 ------- 0 0.0 3.0 99 99
+ 1.01 0 4 cbr 500 ------- 0 0.0 3.0 102 102
- 1.01 0 4 cbr 500 ------- 0 0.0 3.0 102 102
r 1.013 4 3 cbr 500 ------- 0 0.0 3.0 97 97
r 1.014 0 4 cbr 500 ------- 0 0.0 3.0 100 100
+ 1.014 4 3 cbr 500 ------- 0 0.0 3.0 100 100
- 1.014 4 3 cbr 500 ------- 0 0.0 3.0 100 100
+ 1.015 0 4 cbr 500 ------- 0 0.0 3.0 103 103
- 1.015 0 4 cbr 500 ------- 0 0.0 3.0 103 103
r 1.018 4 3 cbr 500 ------- 0 0.0 3.0 98 98
r 1.019 0 4 cbr 500 ------- 0 0.0 3.0 101 101
+ 1.019 4 3 cbr 500 ------- 0 0.0 3.0 101 101
- 1.019 4 3 cbr 500 ------- 0 0.0 3.0 101 101
+ 1.02 0 4 cbr 500 ------- 0 0.0 3.0 104 104
- 1.02 0 4 cbr 500 ------- 0 0.0 3.0 104 104
r 1.023 4 3 cbr 500 ------- 0 0.0 3.0 99 99
r 1.024 0 4 cbr 500 ------- 0 0.0 3.0 102 102
+ 1.024 4 3 cbr 500 ------- 0 0.0 3.0 102 102
- 1.024 4 3 cbr 500 ------- 0 0.0 3.0 102 102
+ 1.025 0 4 cbr 500 ------- 0 0.0 3.0 105 105
- 1.025 0 4 cbr 500 ------- 0 0.0 3.0 105 105
r 1.028 4 3 cbr 500 ------- 0 0.0 3.0 100 100
r 1.029 0 4 cbr 500 ------- 0 0.0 3.0 103 103
+ 1.029 4 3 cbr 500 ------- 0 0.0 3.0 103 103
- 1.029 4 3 cbr 500 ------- 0 0.0 3.0 103 103
+ 1.03 0 4 cbr 500 ------- 0 0.0 3.0 106 106
- 1.03 0 4 cbr 500 ------- 0 0.0 3.0 106 106
r 1.033 4 3 cbr 500 ------- 0 0.0 3.0 101 101
r 1.034 0 4 cbr 500 ------- 0 0.0 3.0 104 104
+ 1.034 4 3 cbr 500 ------- 0 0.0 3.0 104 104
- 1.034 4 3 cbr 500 ------- 0 0.0 3.0 104 104
+ 1.035 0 4 cbr 500 ------- 0 0.0 3.0 107 107
- 1.035 0 4 cbr 500 ------- 0 0.0 3.0 107 107
r 1.038 4 3 cbr 500 ------- 0 0.0 3.0 102 102
r 1.039 0 4 cbr 500 ------- 0 0.0 3.0 105 105
+ 1.039 4 3 cbr 500 ------- 0 0.0 3.0 105 105
- 1.039 4 3 cbr 500 ------- 0 0.0 3.0 105 105
+ 1.04 0 4 cbr 500 ------- 0 0.0 3.0 108 108
- 1.04 0 4 cbr 500 ------- 0 0.0 3.0 108 108
r 1.043 4 3 cbr 500 ------- 0 0.0 3.0 103 103
r 1.044 0 4 cbr 500 ------- 0 0.0 3.0 106 106
+ 1.044 4 3 cbr 500 ------- 0 0.0 3.0 106 106
- 1.044 4 3 cbr 500 ------- 0 0.0 3.0 106 106
+ 1.045 0 4 cbr 500 ------- 0 0.0 3.0 109 109
- 1.045 0 4 cbr 500 ------- 0 0.0 3.0 109 109
r 1.048 4 3 cbr 500 ------- 0 0.0 3.0 104 104
r 1.049 0 4 cbr 500 ------- 0 0.0 3.0 107 107
+ 1.049 4 3 cbr 500 ------- 0 0.0 3.0 107 107
- 1.049 4 3 cbr 500 ------- 0 0.0 3.0 107 107
+ 1.05 0 4 cbr 500 ------- 0 0.0 3.0 110 110
- 1.05 0 4 cbr 500 ------- 0 0.0 3.0 110 110
r 1.053 4 3 cbr 500 ------- 0 0.0 3.0 105 105
r 1.054 0 4 cbr 500 ------- 0 0.0 3.0 108 108
+ 1.054 4 3 cbr 500 ------- 0 0.0 3.0 108 108
- 1.054 4 3 cbr 500 ------- 0 0.0 3.0 108 108
+ 1.055 0 4 cbr 500 ------- 0 0.0 3.0 111 111
- 1.055 0 4 cbr 500 ------- 0 0.0 3.0 111 111
r 1.058 4 3 cbr 500 ------- 0 0.0 3.0 106 106
r 1.059 0 4 cbr 500 ------- 0 0.0 3.0 109 109
+ 1.059 4 3 cbr 500 ------- 0 0.0 3.0 109 109
- 1.059 4 3 cbr 500 ------- 0 0.0 3.0 109 109
+ 1.06 0 4 cbr 500 ------- 0 0.0 3.0 112 112
- 1.06 0 4 cbr 500 ------- 0 0.0 3.0 112 112
r 1.063 4 3 cbr 500 ------- 0 0.0 3.0 107 107
r 1.064 0 4 cbr 500 ------- 0 0.0 3.0 110 110
+ 1.064 4 3 cbr 500 ------- 0 0.0 3.0 110 110
- 1.064 4 3 cbr 500 ------- 0 0.0 3.0 110 110
+ 1.065 0 4 cbr 500 ------- 0 0.0 3.0 113 113
- 1.065 0 4 cbr 500 ------- 0 0.0 3.0 113 113
r 1.068 4 3 cbr 500 ------- 0 0.0 3.0 108 108
r 1.069 0 4 cbr 500 ------- 0 0.0 3.0 111 111
+ 1.069 4 3 cbr 500 ------- 0 0.0 3.0 111 111
- 1.069 4 3 cbr 500 ------- 0 0.0 3.0 111 111
+ 1.07 0 4 cbr 500 ------- 0 0.0 3.0 114 114
- 1.07 0 4 cbr 500 ------- 0 0.0 3.0 114 114
r 1.073 4 3 cbr 500 ------- 0 0.0 3.0 109 109
r 1.074 0 4 cbr 500 ------- 0 0.0 3.0 112 112
+ 1.074 4 3 cbr 500 ------- 0 0.0 3.0 112 112
- 1.074 4 3 cbr 500 ------- 0 0.0 3.0 112 112
+ 1.075 0 4 cbr 500 ------- 0 0.0 3.0 115 115
- 1.075 0 4 cbr 500 ------- 0 0.0 3.0 115 115
r 1.078 4 3 cbr 500 ------- 0 0.0 3.0 110 110
r 1.079 0 4 cbr 500 ------- 0 0.0 3.0 113 113