V -t * -v 1.0a5 -a 0
A -t * -n 1 -p 0 -o 0x7fffffff -c 30 -a 1
A -t * -h 1 -m 1073741823 -s 0
c -t * -i 0 -n blue
c -t * -i 1 -n pink
n -t * -a 0 -s 0 -S UP -v circle -c black -i black
n -t * -a 1 -s 1 -S UP -v circle -c black -i black
n -t * -a 2 -s 2 -S UP -v circle -c black -i black
n -t * -a 3 -s 3 -S UP -v circle -c black -i black
l -t * -s 0 -d 1 -S UP -r 1000000 -D 0.01 -c black
l -t * -s 1 -d 3 -S UP -r 1000000 -D 0.01 -c black
l -t * -s 3 -d 2 -S UP -r 1000000 -D 0.01 -c black
l -t * -s 2 -d 0 -S UP -r 1000000 -D 0.01 -c black
+ -t 0.000169788487334637 -s 0 -d 1 -p rtProtoDV -e 4 -c 0 -i 0 -a 0 -x {0.2 1.2 -1 ------- null}
- -t 0.000169788487334637 -s 0 -d 1 -p rtProtoDV -e 4 -c 0 -i 0 -a 0 -x {0.2 1.2 -1 ------- null}
h -t 0.000169788487334637 -s 0 -d 1 -p rtProtoDV -e 4 -c 0 -i 0 -a 0 -x {0.2 1.2 -1 ------- null}
+ -t 0.000169788487334637 -s 0 -d 2 -p rtProtoDV -e 4 -c 0 -i 1 -a 0 -x {0.2 2.2 -1 ------- null}
- -t 0.000169788487334637 -s 0 -d 2 -p rtProtoDV -e 4 -c 0 -i 1 -a 0 -x {0.2 2.2 -1 ------- null}
h -t 0.000169788487334637 -s 0 -d 2 -p rtProtoDV -e 4 -c 0 -i 1 -a 0 -x {0.2 2.2 -1 ------- null}
+ -t 0.00710233021858257 -s 2 -d 0 -p rtProtoDV -e 4 -c 0 -i 2 -a 0 -x {2.2 0.2 -1 ------- null}
- -t 0.00710233021858257 -s 2 -d 0 -p rtProtoDV -e 4 -c 0 -i 2 -a 0 -x {2.2 0.2 -1 ------- null}
h -t 0.00710233021858257 -s 2 -d 0 -p rtProtoDV -e 4 -c 0 -i 2 -a 0 -x {2.2 0.2 -1 ------- null}
+ -t 0.00710233021858257 -s 2 -d 3 -p rtProtoDV -e 4 -c 0 -i 3 -a 0 -x {2.2 3.2 -1 ------- null}
- -t 0.00710233021858257 -s 2 -d 3 -p rtProtoDV -e 4 -c 0 -i 3 -a 0 -x {2.2 3.2 -1 ------- null}
h -t 0.00710233021858257 -s 2 -d 3 -p rtProtoDV -e 4 -c 0 -i 3 -a 0 -x {2.2 3.2 -1 ------- null}
r -t 0.0102017884873346 -s 0 -d 1 -p rtProtoDV -e 4 -c 0 -i 0 -a 0 -x {0.2 1.2 -1 ------- null}
+ -t 0.0102017884873346 -s 1 -d 0 -p rtProtoDV -e 4 -c 0 -i 4 -a 0 -x {1.2 0.2 -1 ------- null}
- -t 0.0102017884873346 -s 1 -d 0 -p rtProtoDV -e 4 -c 0 -i 4 -a 0 -x {1.2 0.2 -1 ------- null}
h -t 0.0102017884873346 -s 1 -d 0 -p rtProtoDV -e 4 -c 0 -i 4 -a 0 -x {1.2 0.2 -1 ------- null}
+ -t 0.0102017884873346 -s 1 -d 3 -p rtProtoDV -e 4 -c 0 -i 5 -a 0 -x {1.2 3.2 -1 ------- null}
- -t 0.0102017884873346 -s 1 -d 3 -p rtProtoDV -e 4 -c 0 -i 5 -a 0 -x {1.2 3.2 -1 ------- null}
h -t 0.0102017884873346 -s 1 -d 3 -p rtProtoDV -e 4 -c 0 -i 5 -a 0 -x {1.2 3.2 -1 ------- null}
r -t 0.0102017884873346 -s 0 -d 2 -p rtProtoDV -e 4 -c 0 -i 1 -a 0 -x {0.2 2.2 -1 ------- null}
+ -t 0.0102017884873346 -s 2 -d 0 -p rtProtoDV -e 4 -c 0 -i 6 -a 0 -x {2.2 0.2 -1 ------- null}
- -t 0.0102017884873346 -s 2 -d 0 -p rtProtoDV -e 4 -c 0 -i 6 -a 0 -x {2.2 0.2 -1 ------- null}
h -t 0.0102017884873346 -s 2 -d 0 -p rtProtoDV -e 4 -c 0 -i 6 -a 0 -x {2.2 0.2 -1 ------- null}
+ -t 0.0102017884873346 -s 2 -d 3 -p rtProtoDV -e 4 -c 0 -i 7 -a 0 -x {2.2 3.2 -1 ------- null}
- -t 0.0102017884873346 -s 2 -d 3 -p rtProtoDV -e 4 -c 0 -i 7 -a 0 -x {2.2 3.2 -1 ------- null}
h -t 0.0102017884873346 -s 2 -d 3 -p rtProtoDV -e 4 -c 0 -i 7 -a 0 -x {2.2 3.2 -1 ------- null}
r -t 0.0171343302185826 -s 2 -d 0 -p rtProtoDV -e 4 -c 0 -i 2 -a 0 -x {2.2 0.2 -1 ------- null}
+ -t 0.0171343302185826 -s 0 -d 1 -p rtProtoDV -e 4 -c 0 -i 8 -a 0 -x {0.2 1.2 -1 ------- null}
- -t 0.0171343302185826 -s 0 -d 1 -p rtProtoDV -e 4 -c 0 -i 8 -a 0 -x {0.2 1.2 -1 ------- null}
h -t 0.0171343302185826 -s 0 -d 1 -p rtProtoDV -e 4 -c 0 -i 8 -a 0 -x {0.2 1.2 -1 ------- null}
+ -t 0.0171343302185826 -s 0 -d 2 -p rtProtoDV -e 4 -c 0 -i 9 -a 0 -x {0.2 2.2 -1 ------- null}
- -t 0.0171343302185826 -s 0 -d 2 -p rtProtoDV -e 4 -c 0 -i 9 -a 0 -x {0.2 2.2 -1 ------- null}
h -t 0.0171343302185826 -s 0 -d 2 -p rtProtoDV -e 4 -c 0 -i 9 -a 0 -x {0.2 2.2 -1 ------- null}
r -t 0.0171343302185826 -s 2 -d 3 -p rtProtoDV -e 4 -c 0 -i 3 -a 0 -x {2.2 3.2 -1 ------- null}
+ -t 0.0171343302185826 -s 3 -d 1 -p rtProtoDV -e 4 -c 0 -i 10 -a 0 -x {3.2 1.2 -1 ------- null}
- -t 0.0171343302185826 -s 3 -d 1 -p rtProtoDV -e 4 -c 0 -i 10 -a 0 -x {3.2 1.2 -1 ------- null}
h -t 0.0171343302185826 -s 3 -d 1 -p rtProtoDV -e 4 -c 0 -i 10 -a 0 -x {3.2 1.2 -1 ------- null}
+ -t 0.0171343302185826 -s 3 -d 2 -p rtProtoDV -e 4 -c 0 -i 11 -a 0 -x {3.2 2.2 -1 ------- null}
- -t 0.0171343302185826 -s 3 -d 2 -p rtProtoDV -e 4 -c 0 -i 11 -a 0 -x {3.2 2.2 -1 ------- null}
h -t 0.0171343302185826 -s 3 -d 2 -p rtProtoDV -e 4 -c 0 -i 11 -a 0 -x {3.2 2.2 -1 ------- null}
r -t 0.0202337884873346 -s 1 -d 0 -p rtProtoDV -e 4 -c 0 -i 4 -a 0 -x {1.2 0.2 -1 ------- null}
r -t 0.0202337884873346 -s 1 -d 3 -p rtProtoDV -e 4 -c 0 -i 5 -a 0 -x {1.2 3.2 -1 ------- null}
r -t 0.0202337884873346 -s 2 -d 0 -p rtProtoDV -e 4 -c 0 -i 6 -a 0 -x {2.2 0.2 -1 ------- null}
r -t 0.0202337884873346 -s 2 -d 3 -p rtProtoDV -e 4 -c 0 -i 7 -a 0 -x {2.2 3.2 -1 ------- null}
r -t 0.0271663302185826 -s 0 -d 1 -p rtProtoDV -e 4 -c 0 -i 8 -a 0 -x {0.2 1.2 -1 ------- null}
r -t 0.0271663302185826 -s 0 -d 2 -p rtProtoDV -e 4 -c 0 -i 9 -a 0 -x {0.2 2.2 -1 ------- null}
r -t 0.0271663302185826 -s 3 -d 1 -p rtProtoDV -e 4 -c 0 -i 10 -a 0 -x {3.2 1.2 -1 ------- null}
r -t 0.0271663302185826 -s 3 -d 2 -p rtProtoDV -e 4 -c 0 -i 11 -a 0 -x {3.2 2.2 -1 ------- null}
+ -t 0.04406133552271 -s 3 -d 1 -p rtProtoDV -e 4 -c 0 -i 12 -a 0 -x {3.2 1.2 -1 ------- null}
- -t 0.04406133552271 -s 3 -d 1 -p rtProtoDV -e 4 -c 0 -i 12 -a 0 -x {3.2 1.2 -1 ------- null}
h -t 0.04406133552271 -s 3 -d 1 -p rtProtoDV -e 4 -c 0 -i 12 -a 0 -x {3.2 1.2 -1 ------- null}
+ -t 0.04406133552271 -s 3 -d 2 -p rtProtoDV -e 4 -c 0 -i 13 -a 0 -x {3.2 2.2 -1 ------- null}
- -t 0.04406133552271 -s 3 -d 2 -p rtProtoDV -e 4 -c 0 -i 13 -a 0 -x {3.2 2.2 -1 ------- null}
h -t 0.04406133552271 -s 3 -d 2 -p rtProtoDV -e 4 -c 0 -i 13 -a 0 -x {3.2 2.2 -1 ------- null}
r -t 0.05409333552271 -s 3 -d 1 -p rtProtoDV -e 4 -c 0 -i 12 -a 0 -x {3.2 1.2 -1 ------- null}
r -t 0.05409333552271 -s 3 -d 2 -p rtProtoDV -e 4 -c 0 -i 13 -a 0 -x {3.2 2.2 -1 ------- null}
+ -t 0.277940357931862 -s 1 -d 0 -p rtProtoDV -e 4 -c 0 -i 14 -a 0 -x {1.2 0.2 -1 ------- null}
- -t 0.277940357931862 -s 1 -d 0 -p rtProtoDV -e 4 -c 0 -i 14 -a 0 -x {1.2 0.2 -1 ------- null}
h -t 0.277940357931862 -s 1 -d 0 -p rtProtoDV -e 4 -c 0 -i 14 -a 0 -x {1.2 0.2 -1 ------- null}
+ -t 0.277940357931862 -s 1 -d 3 -p rtProtoDV -e 4 -c 0 -i 15 -a 0 -x {1.2 3.2 -1 ------- null}
- -t 0.277940357931862 -s 1 -d 3 -p rtProtoDV -e 4 -c 0 -i 15 -a 0 -x {1.2 3.2 -1 ------- null}
h -t 0.277940357931862 -s 1 -d 3 -p rtProtoDV -e 4 -c 0 -i 15 -a 0 -x {1.2 3.2 -1 ------- null}
r -t 0.287972357931862 -s 1 -d 0 -p rtProtoDV -e 4 -c 0 -i 14 -a 0 -x {1.2 0.2 -1 ------- null}
r -t 0.287972357931862 -s 1 -d 3 -p rtProtoDV -e 4 -c 0 -i 15 -a 0 -x {1.2 3.2 -1 ------- null}
+ -t 0.5 -s 0 -d 1 -p tcp -e 40 -c 0 -i 16 -a 0 -x {0.0 1.0 0 ------- null}
- -t 0.5 -s 0 -d 1 -p tcp -e 40 -c 0 -i 16 -a 0 -x {0.0 1.0 0 ------- null}
h -t 0.5 -s 0 -d 1 -p tcp -e 40 -c 0 -i 16 -a 0 -x {0.0 1.0 -1 ------- null}
+ -t 0.5 -s 3 -d 2 -p tcp -e 40 -c 1 -i 17 -a 1 -x {3.0 2.0 0 ------- null}
- -t 0.5 -s 3 -d 2 -p tcp -e 40 -c 1 -i 17 -a 1 -x {3.0 2.0 0 ------- null}
h -t 0.5 -s 3 -d 2 -p tcp -e 40 -c 1 -i 17 -a 1 -x {3.0 2.0 -1 ------- null}
r -t 0.51032 -s 0 -d 1 -p tcp -e 40 -c 0 -i 16 -a 0 -x {0.0 1.0 0 ------- null}
+ -t 0.51032 -s 1 -d 0 -p ack -e 40 -c 0 -i 18 -a 0 -x {1.0 0.0 0 ------- null}
- -t 0.51032 -s 1 -d 0 -p ack -e 40 -c 0 -i 18 -a 0 -x {1.0 0.0 0 ------- null}
h -t 0.51032 -s 1 -d 0 -p ack -e 40 -c 0 -i 18 -a 0 -x {1.0 0.0 -1 ------- null}
r -t 0.51032 -s 3 -d 2 -p tcp -e 40 -c 1 -i 17 -a 1 -x {3.0 2.0 0 ------- null}
+ -t 0.51032 -s 2 -d 3 -p ack -e 40 -c 1 -i 19 -a 1 -x {2.0 3.0 0 ------- null}
- -t 0.51032 -s 2 -d 3 -p ack -e 40 -c 1 -i 19 -a 1 -x {2.0 3.0 0 ------- null}
h -t 0.51032 -s 2 -d 3 -p ack -e 40 -c 1 -i 19 -a 1 -x {2.0 3.0 -1 ------- null}
r -t 0.52064 -s 1 -d 0 -p ack -e 40 -c 0 -i 18 -a 0 -x {1.0 0.0 0 ------- null}
+ -t 0.52064 -s 0 -d 1 -p tcp -e 1040 -c 0 -i 20 -a 0 -x {0.0 1.0 1 ------- null}
- -t 0.52064 -s 0 -d 1 -p tcp -e 1040 -c 0 -i 20 -a 0 -x {0.0 1.0 1 ------- null}
h -t 0.52064 -s 0 -d 1 -p tcp -e 1040 -c 0 -i 20 -a 0 -x {0.0 1.0 -1 ------- null}
+ -t 0.52064 -s 0 -d 1 -p tcp -e 1040 -c 0 -i 21 -a 0 -x {0.0 1.0 2 ------- null}
r -t 0.52064 -s 2 -d 3 -p ack -e 40 -c 1 -i 19 -a 1 -x {2.0 3.0 0 ------- null}
+ -t 0.52064 -s 3 -d 2 -p tcp -e 1040 -c 1 -i 22 -a 1 -x {3.0 2.0 1 ------- null}
- -t 0.52064 -s 3 -d 2 -p tcp -e 1040 -c 1 -i 22 -a 1 -x {3.0 2.0 1 ------- null}
h -t 0.52064 -s 3 -d 2 -p tcp -e 1040 -c 1 -i 22 -a 1 -x {3.0 2.0 -1 ------- null}
+ -t 0.52064 -s 3 -d 2 -p tcp -e 1040 -c 1 -i 23 -a 1 -x {3.0 2.0 2 ------- null}
- -t 0.52896 -s 0 -d 1 -p tcp -e 1040 -c 0 -i 21 -a 0 -x {0.0 1.0 2 ------- null}
h -t 0.52896 -s 0 -d 1 -p tcp -e 1040 -c 0 -i 21 -a 0 -x {0.0 1.0 -1 ------- null}
- -t 0.52896 -s 3 -d 2 -p tcp -e 1040 -c 1 -i 23 -a 1 -x {3.0 2.0 2 ------- null}
h -t 0.52896 -s 3 -d 2 -p tcp -e 1040 -c 1 -i 23 -a 1 -x {3.0 2.0 -1 ------- null}
r -t 0.53896 -s 0 -d 1 -p tcp -e 1040 -c 0 -i 20 -a 0 -x {0.0 1.0 1 ------- null}
+ -t 0.53896 -s 1 -d 0 -p ack -e 40 -c 0 -i 24 -a 0 -x {1.0 0.0 1 ------- null}
- -t 0.53896 -s 1 -d 0 -p ack -e 40 -c 0 -i 24 -a 0 -x {1.0 0.0 1 ------- null}
h -t 0.53896 -s 1 -d 0 -p ack -e 40 -c 0 -i 24 -a 0 -x {1.0 0.0 -1 ------- null}
r -t 0.53896 -s 3 -d 2 -p tcp -e 1040 -c 1 -i 22 -a 1 -x {3.0 2.0 1 ------- null}
+ -t 0.53896 -s 2 -d 3 -p ack -e 40 -c 1 -i 25 -a 1 -x {2.0 3.0 1 ------- null}
- -t 0.53896 -s 2 -d 3 -p ack -e 40 -c 1 -i 25 -a 1 -x {2.0 3.0 1 ------- null}
h -t 0.53896 -s 2 -d 3 -p ack -e 40 -c 1 -i 25 -a 1 -x {2.0 3.0 -1 ------- null}
r -t 0.54728 -s 0 -d 1 -p tcp -e 1040 -c 0 -i 21 -a 0 -x {0.0 1.0 2 ------- null}
+ -t 0.54728 -s 1 -d 0 -p ack -e 40 -c 0 -i 26 -a 0 -x {1.0 0.0 2 ------- null}
- -t 0.54728 -s 1 -d 0 -p ack -e 40 -c 0 -i 26 -a 0 -x {1.0 0.0 2 ------- null}
h -t 0.54728 -s 1 -d 0 -p ack -e 40 -c 0 -i 26 -a 0 -x {1.0 0.0 -1 ------- null}
r -t 0.54728 -s 3 -d 2 -p tcp -e 1040 -c 1 -i 23 -a 1 -x {3.0 2.0 2 ------- null}
+ -t 0.54728 -s 2 -d 3 -p ack -e 40 -c 1 -i 27 -a 1 -x {2.0 3.0 2 ------- null}
- -t 0.54728 -s 2 -d 3 -p ack -e 40 -c 1 -i 27 -a 1 -x {2.0 3.0 2 ------- null}
h -t 0.54728 -s 2 -d 3 -p ack -e 40 -c 1 -i 27 -a 1 -x {2.0 3.0 -1 ------- null}
r -t 0.54928 -s 1 -d 0 -p ack -e 40 -c 0 -i 24 -a 0 -x {1.0 0.0 1 ------- null}
+ -t 0.54928 -s 0 -d 1 -p tcp -e 1040 -c 0 -i 28 -a 0 -x {0.0 1.0 3 ------- null}
- -t 0.54928 -s 0 -d 1 -p tcp -e 1040 -c 0 -i 28 -a 0 -x {0.0 1.0 3 ------- null}
h -t 0.54928 -s 0 -d 1 -p tcp -e 1040 -c 0 -i 28 -a 0 -x {0.0 1.0 -1 ------- null}
+ -t 0.54928 -s 0 -d 1 -p tcp -e 1040 -c 0 -i 29 -a 0 -x {0.0 1.0 4 ------- null}
r -t 0.54928 -s 2 -d 3 -p ack -e 40 -c 1 -i 25 -a 1 -x {2.0 3.0 1 ------- null}
+ -t 0.54928 -s 3 -d 2 -p tcp -e 1040 -c 1 -i 30 -a 1 -x {3.0 2.0 3 ------- null}
- -t 0.54928 -s 3 -d 2 -p tcp -e 1040 -c 1 -i 30 -a 1 -x {3.0 2.0 3 ------- null}
h -t 0.54928 -s 3 -d 2 -p tcp -e 1040 -c 1 -i 30 -a 1 -x {3.0 2.0 -1 ------- null}
+ -t 0.54928 -s 3 -d 2 -p tcp -e 1040 -c 1 -i 31 -a 1 -x {3.0 2.0 4 ------- null}
r -t 0.5576 -s 1 -d 0 -p ack -e 40 -c 0 -i 26 -a 0 -x {1.0 0.0 2 ------- null}
+ -t 0.5576 -s 0 -d 1 -p tcp -e 1040 -c 0 -i 32 -a 0 -x {0.0 1.0 5 ------- null}
+ -t 0.5576 -s 0 -d 1 -p tcp -e 1040 -c 0 -i 33 -a 0 -x {0.0 1.0 6 ------- null}
r -t 0.5576 -s 2 -d 3 -p ack -e 40 -c 1 -i 27 -a 1 -x {2.0 3.0 2 ------- null}
+ -t 0.5576 -s 3 -d 2 -p tcp -e 1040 -c 1 -i 34 -a 1 -x {3.0 2.0 5 ------- null}
+ -t 0.5576 -s 3 -d 2 -p tcp -e 1040 -c 1 -i 35 -a 1 -x {3.0 2.0 6 ------- null}
- -t 0.5576 -s 0 -d 1 -p tcp -e 1040 -c 0 -i 29 -a 0 -x {0.0 1.0 4 ------- null}
h -t 0.5576 -s 0 -d 1 -p tcp -e 1040 -c 0 -i 29 -a 0 -x {0.0 1.0 -1 ------- null}
- -t 0.5576 -s 3 -d 2 -p tcp -e 1040 -c 1 -i 31 -a 1 -x {3.0 2.0 4 ------- null}
h -t 0.5576 -s 3 -d 2 -p tcp -e 1040 -c 1 -i 31 -a 1 -x {3.0 2.0 -1 ------- null}
- -t 0.56592 -s 0 -d 1 -p tcp -e 1040 -c 0 -i 32 -a 0 -x {0.0 1.0 5 ------- null}
h -t 0.56592 -s 0 -d 1 -p tcp -e 1040 -c 0 -i 32 -a 0 -x {0.0 1.0 -1 ------- null}
- -t 0.56592 -s 3 -d 2 -p tcp -e 1040 -c 1 -i 34 -a 1 -x {3.0 2.0 5 ------- null}
h -t 0.56592 -s 3 -d 2 -p tcp -e 1040 -c 1 -i 34 -a 1 -x {3.0 2.0 -1 ------- null}
r -t 0.5676 -s 0 -d 1 -p tcp -e 1040 -c 0 -i 28 -a 0 -x {0.0 1.0 3 ------- null}
+ -t 0.5676 -s 1 -d 0 -p ack -e 40 -c 0 -i 36 -a 0 -x {1.0 0.0 3 ------- null}
- -t 0.5676 -s 1 -d 0 -p ack -e 40 -c 0 -i 36 -a 0 -x {1.0 0.0 3 ------- null}
h -t 0.5676 -s 1 -d 0 -p ack -e 40 -c 0 -i 36 -a 0 -x {1.0 0.0 -1 ------- null}
r -t 0.5676 -s 3 -d 2 -p tcp -e 1040 -c 1 -i 30 -a 1 -x {3.0 2.0 3 ------- null}
+ -t 0.5676 -s 2 -d 3 -p ack -e 40 -c 1 -i 37 -a 1 -x {2.0 3.0 3 ------- null}
- -t 0.5676 -s 2 -d 3 -p ack -e 40 -c 1 -i 37 -a 1 -x {2.0 3.0 3 ------- null}
h -t 0.5676 -s 2 -d 3 -p ack -e 40 -c 1 -i 37 -a 1 -x {2.0 3.0 -1 ------- null}
- -t 0.57424 -s 0 -d 1 -p tcp -e 1040 -c 0 -i 33 -a 0 -x {0.0 1.0 6 ------- null}
h -t 0.57424 -s 0 -d 1 -p tcp -e 1040 -c 0 -i 33 -a 0 -x {0.0 1.0 -1 ------- null}
- -t 0.57424 -s 3 -d 2 -p tcp -e 1040 -c 1 -i 35 -a 1 -x {3.0 2.0 6 ------- null}
h -t 0.57424 -s 3 -d 2 -p tcp -e 1040 -c 1 -i 35 -a 1 -x {3.0 2.0 -1 ------- null}
r -t 0.57592 -s 0 -d 1 -p tcp -e 1040 -c 0 -i 29 -a 0 -x {0.0 1.0 4 ------- null}
+ -t 0.57592 -s 1 -d 0 -p ack -e 40 -c 0 -i 38 -a 0 -x {1.0 0.0 4 ------- null}
- -t 0.57592 -s 1 -d 0 -p ack -e 40 -c 0 -i 38 -a 0 -x {1.0 0.0 4 ------- null}
h -t 0.57592 -s 1 -d 0 -p ack -e 40 -c 0 -i 38 -a 0 -x {1.0 0.0 -1 ------- null}
r -t 0.57592 -s 3 -d 2 -p tcp -e 1040 -c 1 -i 31 -a 1 -x {3.0 2.0 4 ------- null}
+ -t 0.57592 -s 2 -d 3 -p ack -e 40 -c 1 -i 39 -a 1 -x {2.0 3.0 4 ------- null}
- -t 0.57592 -s 2 -d 3 -p ack -e 40 -c 1 -i 39 -a 1 -x {2.0 3.0 4 ------- null}
h -t 0.57592 -s 2 -d 3 -p ack -e 40 -c 1 -i 39 -a 1 -x {2.0 3.0 -1 ------- null}
r -t 0.57792 -s 1 -d 0 -p ack -e 40 -c 0 -i 36 -a 0 -x {1.0 0.0 3 ------- null}
+ -t 0.57792 -s 0 -d 1 -p tcp -e 1040 -c 0 -i 40 -a 0 -x {0.0 1.0 7 ------- null}
+ -t 0.57792 -s 0 -d 1 -p tcp -e 1040 -c 0 -i 41 -a 0 -x {0.0 1.0 8 ------- null}
r -t 0.57792 -s 2 -d 3 -p ack -e 40 -c 1 -i 37 -a 1 -x {2.0 3.0 3 ------- null}
+ -t 0.57792 -s 3 -d 2 -p tcp -e 1040 -c 1 -i 42 -a 1 -x {3.0 2.0 7 ------- null}
+ -t 0.57792 -s 3 -d 2 -p tcp -e 1040 -c 1 -i 43 -a 1 -x {3.0 2.0 8 ------- null}
- -t 0.58256 -s 0 -d 1 -p tcp -e 1040 -c 0 -i 40 -a 0 -x {0.0 1.0 7 ------- null}
h -t 0.58256 -s 0 -d 1 -p tcp -e 1040 -c 0 -i 40 -a 0 -x {0.0 1.0 -1 ------- null}
- -t 0.58256 -s 3 -d 2 -p tcp -e 1040 -c 1 -i 42 -a 1 -x {3.0 2.0 7 ------- null}
h -t 0.58256 -s 3 -d 2 -p tcp -e 1040 -c 1 -i 42 -a 1 -x {3.0 2.0 -1 ------- null}
r -t 0.58424 -s 0 -d 1 -p tcp -e 1040 -c 0 -i 32 -a 0 -x {0.0 1.0 5 ------- null}
+ -t 0.58424 -s 1 -d 0 -p ack -e 40 -c 0 -i 44 -a 0 -x {1.0 0.0 5 ------- null}
- -t 0.58424 -s 1 -d 0 -p ack -e 40 -c 0 -i 44 -a 0 -x {1.0 0.0 5 ------- null}
h -t 0.58424 -s 1 -d 0 -p ack -e 40 -c 0 -i 44 -a 0 -x {1.0 0.0 -1 ------- null}
r -t 0.58424 -s 3 -d 2 -p tcp -e 1040 -c 1 -i 34 -a 1 -x {3.0 2.0 5 ------- null}
+ -t 0.58424 -s 2 -d 3 -p ack -e 40 -c 1 -i 45 -a 1 -x {2.0 3.0 5 ------- null}
- -t 0.58424 -s 2 -d 3 -p ack -e 40 -c 1 -i 45 -a 1 -x {2.0 3.0 5 ------- null}
h -t 0.58424 -s 2 -d 3 -p ack -e 40 -c 1 -i 45 -a 1 -x {2.0 3.0 -1 ------- null}
r -t 0.58624 -s 1 -d 0 -p ack -e 40 -c 0 -i 38 -a 0 -x {1.0 0.0 4 ------- null}
+ -t 0.58624 -s 0 -d 1 -p tcp -e 1040 -c 0 -i 46 -a 0 -x {0.0 1.0 9 ------- null}
+ -t 0.58624 -s 0 -d 1 -p tcp -e 1040 -c 0 -i 47 -a 0 -x {0.0 1.0 10 ------- null}
r -t 0.58624 -s 2 -d 3 -p ack -e 40 -c 1 -i 39 -a 1 -x {2.0 3.0 4 ------- null}
+ -t 0.58624 -s 3 -d 2 -p tcp -e 1040 -c 1 -i 48 -a 1 -x {3.0 2.0 9 ------- null}
+ -t 0.58624 -s 3 -d 2 -p tcp -e 1040 -c 1 -i 49 -a 1 -x {3.0 2.0 10 ------- null}
- -t 0.59088 -s 0 -d 1 -p tcp -e 1040 -c 0 -i 41 -a 0 -x {0.0 1.0 8 ------- null}
h -t 0.59088 -s 0 -d 1 -p tcp -e 1040 -c 0 -i 41 -a 0 -x {0.0 1.0 -1 ------- null}
- -t 0.59088 -s 3 -d 2 -p tcp -e 1040 -c 1 -i 43 -a 1 -x {3.0 2.0 8 ------- null}
h -t 0.59088 -s 3 -d 2 -p tcp -e 1040 -c 1 -i 43 -a 1 -x {3.0 2.0 -1 ------- null}
r -t 0.59256 -s 0 -d 1 -p tcp -e 1040 -c 0 -i 33 -a 0 -x {0.0 1.0 6 ------- null}
+ -t 0.59256 -s 1 -d 0 -p ack -e 40 -c 0 -i 50 -a 0 -x {1.0 0.0 6 ------- null}
- -t 0.59256 -s 1 -d 0 -p ack -e 40 -c 0 -i 50 -a 0 -x {1.0 0.0 6 ------- null}
h -t 0.59256 -s 1 -d 0 -p ack -e 40 -c 0 -i 50 -a 0 -x {1.0 0.0 -1 ------- null}
r -t 0.59256 -s 3 -d 2 -p tcp -e 1040 -c 1 -i 35 -a 1 -x {3.0 2.0 6 ------- null}
+ -t 0.59256 -s 2 -d 3 -p ack -e 40 -c 1 -i 51 -a 1 -x {2.0 3.0 6 ------- null}
- -t 0.59256 -s 2 -d 3 -p ack -e 40 -c 1 -i 51 -a 1 -x {2.0 3.0 6 ------- null}
h -t 0.59256 -s 2 -d 3 -p ack -e 40 -c 1 -i 51 -a 1 -x {2.0 3.0 -1 ------- null}
r -t 0.59456 -s 1 -d 0 -p ack -e 40 -c 0 -i 44 -a 0 -x {1.0 0.0 5 ------- null}
+ -t 0.59456 -s 0 -d 1 -p tcp -e 1040 -c 0 -i 52 -a 0 -x {0.0 1.0 11 ------- null}
+ -t 0.59456 -s 0 -d 1 -p tcp -e 1040 -c 0 -i 53 -a 0 -x {0.0 1.0 12 ------- null}
r -t 0.59456 -s 2 -d 3 -p ack -e 40 -c 1 -i 45 -a 1 -x {2.0 3.0 5 ------- null}
+ -t 0.59456 -s 3 -d 2 -p tcp -e 1040 -c 1 -i 54 -a 1 -x {3.0 2.0 11 ------- null}
+ -t 0.59456 -s 3 -d 2 -p tcp -e 1040 -c 1 -i 55 -a 1 -x {3.0 2.0 12 ------- null}
- -t 0.5992 -s 0 -d 1 -p tcp -e 1040 -c 0 -i 46 -a 0 -x {0.0 1.0 9 ------- null}
h -t 0.5992 -s 0 -d 1 -p tcp -e 1040 -c 0 -i 46 -a 0 -x {0.0 1.0 -1 ------- null}
- -t 0.5992 -s 3 -d 2 -p tcp -e 1040 -c 1 -i 48 -a 1 -x {3.0 2.0 9 ------- null}
h -t 0.5992 -s 3 -d 2 -p tcp -e 1040 -c 1 -i 48 -a 1 -x {3.0 2.0 -1 ------- null}
r -t 0.60088 -s 0 -d 1 -p tcp -e 1040 -c 0 -i 40 -a 0 -x {0.0 1.0 7 ------- null}
+ -t 0.60088 -s 1 -d 0 -p ack -e 40 -c 0 -i 56 -a 0 -x {1.0 0.0 7 ------- null}
- -t 0.60088 -s 1 -d 0 -p ack -e 40 -c 0 -i 56 -a 0 -x {1.0 0.0 7 ------- null}
h -t 0.60088 -s 1 -d 0 -p ack -e 40 -c 0 -i 56 -a 0 -x {1.0 0.0 -1 ------- null}
r -t 0.60088 -s 3 -d 2 -p tcp -e 1040 -c 1 -i 42 -a 1 -x {3.0 2.0 7 ------- null}
+ -t 0.60088 -s 2 -d 3 -p ack -e 40 -c 1 -i 57 -a 1 -x {2.0 3.0 7 ------- null}
- -t 0.60088 -s 2 -d 3 -p ack -e 40 -c 1 -i 57 -a 1 -x {2.0 3.0 7 ------- null}
h -t 0.60088 -s 2 -d 3 -p ack -e 40 -c 1 -i 57 -a 1 -x {2.0 3.0 -1 ------- null}
r -t 0.60288 -s 1 -d 0 -p ack -e 40 -c 0 -i 50 -a 0 -x {1.0 0.0 6 ------- null}
+ -t 0.60288 -s 0 -d 1 -p tcp -e 1040 -c 0 -i 58 -a 0 -x {0.0 1.0 13 ------- null}
+ -t 0.60288 -s 0 -d 1 -p tcp -e 1040 -c 0 -i 59 -a 0 -x {0.0 1.0 14 ------- null}
r -t 0.60288 -s 2 -d 3 -p ack -e 40 -c 1 -i 51 -a 1 -x {2.0 3.0 6 ------- null}
+ -t 0.60288 -s 3 -d 2 -p tcp -e 1040 -c 1 -i 60 -a 1 -x {3.0 2.0 13 ------- null}
+ -t 0.60288 -s 3 -d 2 -p tcp -e 1040 -c 1 -i 61 -a 1 -x {3.0 2.0 14 ------- null}
- -t 0.60752 -s 0 -d 1 -p tcp -e 1040 -c 0 -i 47 -a 0 -x {0.0 1.0 10 ------- null}
h -t 0.60752 -s 0 -d 1 -p tcp -e 1040 -c 0 -i 47 -a 0 -x {0.0 1.0 -1 ------- null}
- -t 0.60752 -s 3 -d 2 -p tcp -e 1040 -c 1 -i 49 -a 1 -x {3.0 2.0 10 ------- null}
h -t 0.60752 -s 3 -d 2 -p tcp -e 1040 -c 1 -i 49 -a 1 -x {3.0 2.0 -1 ------- null}
r -t 0.6092 -s 0 -d 1 -p tcp -e 1040 -c 0 -i 41 -a 0 -x {0.0 1.0 8 ------- null}
+ -t 0.6092 -s 1 -d 0 -p ack -e 40 -c 0 -i 62 -a 0 -x {1.0 0.0 8 ------- null}
- -t 0.6092 -s 1 -d 0 -p ack -e 40 -c 0 -i 62 -a 0 -x {1.0 0.0 8 ------- null}
h -t 0.6092 -s 1 -d 0 -p ack -e 40 -c 0 -i 62 -a 0 -x {1.0 0.0 -1 ------- null}
r -t 0.6092 -s 3 -d 2 -p tcp -e 1040 -c 1 -i 43 -a 1 -x {3.0 2.0 8 ------- null}
+ -t 0.6092 -s 2 -d 3 -p ack -e 40 -c 1 -i 63 -a 1 -x {2.0 3.0 8 ------- null}
- -t 0.6092 -s 2 -d 3 -p ack -e 40 -c 1 -i 63 -a 1 -x {2.0 3.0 8 ------- null}
h -t 0.6092 -s 2 -d 3 -p ack -e 40 -c 1 -i 63 -a 1 -x {2.0 3.0 -1 ------- null}
r -t 0.6112 -s 1 -d 0 -p ack -e 40 -c 0 -i 56 -a 0 -x {1.0 0.0 7 ------- null}
+ -t 0.6112 -s 0 -d 1 -p tcp -e 1040 -c 0 -i 64 -a 0 -x {0.0 1.0 15 ------- null}
+ -t 0.6112 -s 0 -d 1 -p tcp -e 1040 -c 0 -i 65 -a 0 -x {0.0 1.0 16 ------- null}
r -t 0.6112 -s 2 -d 3 -p ack -e 40 -c 1 -i 57 -a 1 -x {2.0 3.0 7 ------- null}
+ -t 0.6112 -s 3 -d 2 -p tcp -e 1040 -c 1 -i 66 -a 1 -x {3.0 2.0 15 ------- null}
+ -t 0.6112 -s 3 -d 2 -p tcp -e 1040 -c 1 -i 67 -a 1 -x {3.0 2.0 16 ------- null}
- -t 0.61584 -s 0 -d 1 -p tcp -e 1040 -c 0 -i 52 -a 0 -x {0.0 1.0 11 ------- null}
h -t 0.61584 -s 0 -d 1 -p tcp -e 1040 -c 0 -i 52 -a 0 -x {0.0 1.0 -1 ------- null}
- -t 0.61584 -s 3 -d 2 -p tcp -e 1040 -c 1 -i 54 -a 1 -x {3.0 2.0 11 ------- null}
h -t 0.61584 -s 3 -d 2 -p tcp -e 1040 -c 1 -i 54 -a 1 -x {3.0 2.0 -1 ------- null}
r -t 0.61752 -s 0 -d 1 -p tcp -e 1040 -c 0 -i 46 -a 0 -x {0.0 1.0 9 ------- null}
+ -t 0.61752 -s 1 -d 0 -p ack -e 40 -c 0 -i 68 -a 0 -x {1.0 0.0 9 ------- null}
- -t 0.61752 -s 1 -d 0 -p ack -e 40 -c 0 -i 68 -a 0 -x {1.0 0.0 9 ------- null}
h -t 0.61752 -s 1 -d 0 -p ack -e 40 -c 0 -i 68 -a 0 -x {1.0 0.0 -1 ------- null}
r -t 0.61752 -s 3 -d 2 -p tcp -e 1040 -c 1 -i 48 -a 1 -x {3.0 2.0 9 ------- null}
+ -t 0.61752 -s 2 -d 3 -p ack -e 40 -c 1 -i 69 -a 1 -x {2.0 3.0 9 ------- null}
- -t 0.61752 -s 2 -d 3 -p ack -e 40 -c 1 -i 69 -a 1 -x {2.0 3.0 9 ------- null}
h -t 0.61752 -s 2 -d 3 -p ack -e 40 -c 1 -i 69 -a 1 -x {2.0 3.0 -1 ------- null}
r -t 0.61952 -s 1 -d 0 -p ack -e 40 -c 0 -i 62 -a 0 -x {1.0 0.0 8 ------- null}
+ -t 0.61952 -s 0 -d 1 -p tcp -e 1040 -c 0 -i 70 -a 0 -x {0.0 1.0 17 ------- null}
+ -t 0.61952 -s 0 -d 1 -p tcp -e 1040 -c 0 -i 71 -a 0 -x {0.0 1.0 18 ------- null}
r -t 0.61952 -s 2 -d 3 -p ack -e 40 -c 1 -i 63 -a 1 -x {2.0 3.0 8 ------- null}
+ -t 0.61952 -s 3 -d 2 -p tcp -e 1040 -c 1 -i 72 -a 1 -x {3.0 2.0 17 ------- null}
+ -t 0.61952 -s 3 -d 2 -p tcp -e 1040 -c 1 -i 73 -a 1 -x {3.0 2.0 18 ------- null}
- -t 0.62416 -s 0 -d 1 -p tcp -e 1040 -c 0 -i 53 -a 0 -x {0.0 1.0 12 ------- null}
h -t 0.62416 -s 0 -d 1 -p tcp -e 1040 -c 0 -i 53 -a 0 -x {0.0 1.0 -1 ------- null}
- -t 0.62416 -s 3 -d 2 -p tcp -e 1040 -c 1 -i 55 -a 1 -x {3.0 2.0 12 ------- null}
h -t 0.62416 -s 3 -d 2 -p tcp -e 1040 -c 1 -i 55 -a 1 -x {3.0 2.0 -1 ------- null}
r -t 0.62584 -s 0 -d 1 -p tcp -e 1040 -c 0 -i 47 -a 0 -x {0.0 1.0 10 ------- null}
+ -t 0.62584 -s 1 -d 0 -p ack -e 40 -c 0 -i 74 -a 0 -x {1.0 0.0 10 ------- null}
- -t 0.62584 -s 1 -d 0 -p ack -e 40 -c 0 -i 74 -a 0 -x {1.0 0.0 10 ------- null}
h -t 0.62584 -s 1 -d 0 -p ack -e 40 -c 0 -i 74 -a 0 -x {1.0 0.0 -1 ------- null}
r -t 0.62584 -s 3 -d 2 -p tcp -e 1040 -c 1 -i 49 -a 1 -x {3.0 2.0 10 ------- null}
+ -t 0.62584 -s 2 -d 3 -p ack -e 40 -c 1 -i 75 -a 1 -x {2.0 3.0 10 ------- null}
- -t 0.62584 -s 2 -d 3 -p ack -e 40 -c 1 -i 75 -a 1 -x {2.0 3.0 10 ------- null}
h -t 0.62584 -s 2 -d 3 -p ack -e 40 -c 1 -i 75 -a 1 -x {2.0 3.0 -1 ------- null}
r -t 0.62784 -s 1 -d 0 -p ack -e 40 -c 0 -i 68 -a 0 -x {1.0 0.0 9 ------- null}
+ -t 0.62784 -s 0 -d 1 -p tcp -e 1040 -c 0 -i 76 -a 0 -x {0.0 1.0 19 ------- null}
+ -t 0.62784 -s 0 -d 1 -p tcp -e 1040 -c 0 -i 77 -a 0 -x {0.0 1.0 20 ------- null}
r -t 0.62784 -s 2 -d 3 -p ack -e 40 -c 1 -i 69 -a 1 -x {2.0 3.0 9 ------- null}
+ -t 0.62784 -s 3 -d 2 -p tcp -e 1040 -c 1 -i 78 -a 1 -x {3.0 2.0 19 ------- null}
+ -t 0.62784 -s 3 -d 2 -p tcp -e 1040 -c 1 -i 79 -a 1 -x {3.0 2.0 20 ------- null}
- -t 0.63248 -s 0 -d 1 -p tcp -e 1040 -c 0 -i 58 -a 0 -x {0.0 1.0 13 ------- null}
h -t 0.63248 -s 0 -d 1 -p tcp -e 1040 -c 0 -i 58 -a 0 -x {0.0 1.0 -1 ------- null}
- -t 0.63248 -s 3 -d 2 -p tcp -e 1040 -c 1 -i 60 -a 1 -x {3.0 2.0 13 ------- null}
h -t 0.63248 -s 3 -d 2 -p tcp -e 1040 -c 1 -i 60 -a 1 -x {3.0 2.0 -1 ------- null}
r -t 0.63416 -s 0 -d 1 -p tcp -e 1040 -c 0 -i 52 -a 0 -x {0.0 1.0 11 ------- null}
+ -t 0.63416 -s 1 -d 0 -p ack -e 40 -c 0 -i 80 -a 0 -x {1.0 0.0 11 ------- null}
- -t 0.63416 -s 1 -d 0 -p ack -e 40 -c 0 -i 80 -a 0 -x {1.0 0.0 11 ------- null}
h -t 0.63416 -s 1 -d 0 -p ack -e 40 -c 0 -i 80 -a 0 -x {1.0 0.0 -1 ------- null}
r -t 0.63416 -s 3 -d 2 -p tcp -e 1040 -c 1 -i 54 -a 1 -x {3.0 2.0 11 ------- null}
+ -t 0.63416 -s 2 -d 3 -p ack -e 40 -c 1 -i 81 -a 1 -x {2.0 3.0 11 ------- null}
- -t 0.63416 -s 2 -d 3 -p ack -e 40 -c 1 -i 81 -a 1 -x {2.0 3.0 11 ------- null}
h -t 0.63416 -s 2 -d 3 -p ack -e 40 -c 1 -i 81 -a 1 -x {2.0 3.0 -1 ------- null}
r -t 0.63616 -s 1 -d 0 -p ack -e 40 -c 0 -i 74 -a 0 -x {1.0 0.0 10 ------- null}
+ -t 0.63616 -s 0 -d 1 -p tcp -e 1040 -c 0 -i 82 -a 0 -x {0.0 1.0 21 ------- null}
+ -t 0.63616 -s 0 -d 1 -p tcp -e 1040 -c 0 -i 83 -a 0 -x {0.0 1.0 22 ------- null}
r -t 0.63616 -s 2 -d 3 -p ack -e 40 -c 1 -i 75 -a 1 -x {2.0 3.0 10 ------- null}
+ -t 0.63616 -s 3 -d 2 -p tcp -e 1040 -c 1 -i 84 -a 1 -x {3.0 2.0 21 ------- null}
+ -t 0.63616 -s 3 -d 2 -p tcp -e 1040 -c 1 -i 85 -a 1 -x {3.0 2.0 22 ------- null}
- -t 0.6408 -s 0 -d 1 -p tcp -e 1040 -c 0 -i 59 -a 0 -x {0.0 1.0 14 ------- null}
h -t 0.6408 -s 0 -d 1 -p tcp -e 1040 -c 0 -i 59 -a 0 -x {0.0 1.0 -1 ------- null}
- -t 0.6408 -s 3 -d 2 -p tcp -e 1040 -c 1 -i 61 -a 1 -x {3.0 2.0 14 ------- null}
h -t 0.6408 -s 3 -d 2 -p tcp -e 1040 -c 1 -i 61 -a 1 -x {3.0 2.0 -1 ------- null}
r -t 0.64248 -s 0 -d 1 -p tcp -e 1040 -c 0 -i 53 -a 0 -x {0.0 1.0 12 ------- null}
+ -t 0.64248 -s 1 -d 0 -p ack -e 40 -c 0 -i 86 -a 0 -x {1.0 0.0 12 ------- null}
- -t 0.64248 -s 1 -d 0 -p ack -e 40 -c 0 -i 86 -a 0 -x {1.0 0.0 12 ------- null}
h -t 0.64248 -s 1 -d 0 -p ack -e 40 -c 0 -i 86 -a 0 -x {1.0 0.0 -1 ------- null}
r -t 0.64248 -s 3 -d 2 -p tcp -e 1040 -c 1 -i 55 -a 1 -x {3.0 2.0 12 ------- null}
+ -t 0.64248 -s 2 -d 3 -p ack -e 40 -c 1 -i 87 -a 1 -x {2.0 3.0 12 ------- null}
- -t 0.64248 -s 2 -d 3 -p ack -e 40 -c 1 -i 87 -a 1 -x {2.0 3.0 12 ------- null}
h -t 0.64248 -s 2 -d 3 -p ack -e 40 -c 1 -i 87 -a 1 -x {2.0 3.0 -1 ------- null}
r -t 0.64448 -s 1 -d 0 -p ack -e 40 -c 0 -i 80 -a 0 -x {1.0 0.0 11 ------- null}
+ -t 0.64448 -s 0 -d 1 -p tcp -e 1040 -c 0 -i 88 -a 0 -x {0.0 1.0 23 ------- null}
+ -t 0.64448 -s 0 -d 1 -p tcp -e 1040 -c 0 -i 89 -a 0 -x {0.0 1.0 24 ------- null}
r -t 0.64448 -s 2 -d 3 -p ack -e 40 -c 1 -i 81 -a 1 -x {2.0 3.0 11 ------- null}
+ -t 0.64448 -s 3 -d 2 -p tcp -e 1040 -c 1 -i 90 -a 1 -x {3.0 2.0 23 ------- null}
+ -t 0.64448 -s 3 -d 2 -p tcp -e 1040 -c 1 -i 91 -a 1 -x {3.0 2.0 24 ------- null}
- -t 0.64912 -s 0 -d 1 -p tcp -e 1040 -c 0 -i 64 -a 0 -x {0.0 1.0 15 ------- null}
h -t 0.64912 -s 0 -d 1 -p tcp -e 1040 -c 0 -i 64 -a 0 -x {0.0 1.0 -1 ------- null}
- -t 0.64912 -s 3 -d 2 -p tcp -e 1040 -c 1 -i 66 -a 1 -x {3.0 2.0 15 ------- null}
h -t 0.64912 -s 3 -d 2 -p tcp -e 1040 -c 1 -i 66 -a 1 -x {3.0 2.0 -1 ------- null}
r -t 0.6508 -s 0 -d 1 -p tcp -e 1040 -c 0 -i 58 -a 0 -x {0.0 1.0 13 ------- null}
+ -t 0.6508 -s 1 -d 0 -p ack -e 40 -c 0 -i 92 -a 0 -x {1.0 0.0 13 ------- null}
- -t 0.6508 -s 1 -d 0 -p ack -e 40 -c 0 -i 92 -a 0 -x {1.0 0.0 13 ------- null}
h -t 0.6508 -s 1 -d 0 -p ack -e 40 -c 0 -i 92 -a 0 -x {1.0 0.0 -1 ------- null}
r -t 0.6508 -s 3 -d 2 -p tcp -e 1040 -c 1 -i 60 -a 1 -x {3.0 2.0 13 ------- null}
+ -t 0.6508 -s 2 -d 3 -p ack -e 40 -c 1 -i 93 -a 1 -x {2.0 3.0 13 ------- null}
- -t 0.6508 -s 2 -d 3 -p ack -e 40 -c 1 -i 93 -a 1 -x {2.0 3.0 13 ------- null}
h -t 0.6508 -s 2 -d 3 -p ack -e 40 -c 1 -i 93 -a 1 -x {2.0 3.0 -1 ------- null}
r -t 0.6528 -s 1 -d 0 -p ack -e 40 -c 0 -i 86 -a 0 -x {1.0 0.0 12 ------- null}
+ -t 0.6528 -s 0 -d 1 -p tcp -e 1040 -c 0 -i 94 -a 0 -x {0.0 1.0 25 ------- null}
+ -t 0.6528 -s 0 -d 1 -p tcp -e 1040 -c 0 -i 95 -a 0 -x {0.0 1.0 26 ------- null}
r -t 0.6528 -s 2 -d 3 -p ack -e 40 -c 1 -i 87 -a 1 -x {2.0 3.0 12 ------- null}
+ -t 0.6528 -s 3 -d 2 -p tcp -e 1040 -c 1 -i 96 -a 1 -x {3.0 2.0 25 ------- null}
+ -t 0.6528 -s 3 -d 2 -p tcp -e 1040 -c 1 -i 97 -a 1 -x {3.0 2.0 26 ------- null}
- -t 0.65744 -s 0 -d 1 -p tcp -e 1040 -c 0 -i 65 -a 0 -x {0.0 1.0 16 ------- null}
h -t 0.65744 -s 0 -d 1 -p tcp -e 1040 -c 0 -i 65 -a 0 -x {0.0 1.0 -1 ------- null}
- -t 0.65744 -s 3 -d 2 -p tcp -e 1040 -c 1 -i 67 -a 1 -x {3.0 2.0 16 ------- null}
h -t 0.65744 -s 3 -d 2 -p tcp -e 1040 -c 1 -i 67 -a 1 -x {3.0 2.0 -1 ------- null}
r -t 0.65912 -s 0 -d 1 -p tcp -e 1040 -c 0 -i 59 -a 0 -x {0.0 1.0 14 ------- null}
+ -t 0.65912 -s 1 -d 0 -p ack -e 40 -c 0 -i 98 -a 0 -x {1.0 0.0 14 ------- null}
- -t 0.65912 -s 1 -d 0 -p ack -e 40 -c 0 -i 98 -a 0 -x {1.0 0.0 14 ------- null}
h -t 0.65912 -s 1 -d 0 -p ack -e 40 -c 0 -i 98 -a 0 -x {1.0 0.0 -1 ------- null}
r -t 0.65912 -s 3 -d 2 -p tcp -e 1040 -c 1 -i 61 -a 1 -x {3.0 2.0 14 ------- null}
+ -t 0.65912 -s 2 -d 3 -p ack -e 40 -c 1 -i 99 -a 1 -x {2.0 3.0 14 ------- null}
- -t 0.65912 -s 2 -d 3 -p ack -e 40 -c 1 -i 99 -a 1 -x {2.0 3.0 14 ------- null}
h -t 0.65912 -s 2 -d 3 -p ack -e 40 -c 1 -i 99 -a 1 -x {2.0 3.0 -1 ------- null}
r -t 0.66112 -s 1 -d 0 -p ack -e 40 -c 0 -i 92 -a 0 -x {1.0 0.0 13 ------- null}
+ -t 0.66112 -s 0 -d 1 -p tcp -e 1040 -c 0 -i 100 -a 0 -x {0.0 1.0 27 ------- null}
+ -t 0.66112 -s 0 -d 1 -p tcp -e 1040 -c 0 -i 101 -a 0 -x {0.0 1.0 28 ------- null}
r -t 0.66112 -s 2 -d 3 -p ack -e 40 -c 1 -i 93 -a 1 -x {2.0 3.0 13 ------- null}
+ -t 0.66112 -s 3 -d 2 -p tcp -e 1040 -c 1 -i 102 -a 1 -x {3.0 2.0 27 ------- null}
+ -t 0.66112 -s 3 -d 2 -p tcp -e 1040 -c 1 -i 103 -a 1 -x {3.0 2.0 28 ------- null}
- -t 0.66576 -s 0 -d 1 -p tcp -e 1040 -c 0 -i 70 -a 0 -x {0.0 1.0 17 ------- null}
h -t 0.66576 -s 0 -d 1 -p tcp -e 1040 -c 0 -i 70 -a 0 -x {0.0 1.0 -1 ------- null}
- -t 0.66576 -s 3 -d 2 -p tcp -e 1040 -c 1 -i 72 -a 1 -x {3.0 2.0 17 ------- null}
h -t 0.66576 -s 3 -d 2 -p tcp -e 1040 -c 1 -i 72 -a 1 -x {3.0 2.0 -1 ------- null}
r -t 0.66744 -s 0 -d 1 -p tcp -e 1040 -c 0 -i 64 -a 0 -x {0.0 1.0 15 ------- null}
+ -t 0.66744 -s 1 -d 0 -p ack -e 40 -c 0 -i 104 -a 0 -x {1.0 0.0 15 ------- null}
- -t 0.66744 -s 1 -d 0 -p ack -e 40 -c 0 -i 104 -a 0 -x {1.0 0.0 15 ------- null}
h -t 0.66744 -s 1 -d 0 -p ack -e 40 -c 0 -i 104 -a 0 -x {1.0 0.0 -1 ------- null}
r -t 0.66744 -s 3 -d 2 -p tcp -e 1040 -c 1 -i 66 -a 1 -x {3.0 2.0 15 ------- null}
+ -t 0.66744 -s 2 -d 3 -p ack -e 40 -c 1 -i 105 -a 1 -x {2.0 3.0 15 ------- null}
- -t 0.66744 -s 2 -d 3 -p ack -e 40 -c 1 -i 105 -a 1 -x {2.0 3.0 15 ------- null}
h -t 0.66744 -s 2 -d 3 -p ack -e 40 -c 1 -i 105 -a 1 -x {2.0 3.0 -1 ------- null}