+ 0.00017 0 1 rtProtoDV 4 ------- 0 0.2 1.2 -1 0
- 0.00017 0 1 rtProtoDV 4 ------- 0 0.2 1.2 -1 0
+ 0.00017 0 2 rtProtoDV 4 ------- 0 0.2 2.2 -1 1
- 0.00017 0 2 rtProtoDV 4 ------- 0 0.2 2.2 -1 1
+ 0.007102 2 0 rtProtoDV 4 ------- 0 2.2 0.2 -1 2
- 0.007102 2 0 rtProtoDV 4 ------- 0 2.2 0.2 -1 2
+ 0.007102 2 3 rtProtoDV 4 ------- 0 2.2 3.2 -1 3
- 0.007102 2 3 rtProtoDV 4 ------- 0 2.2 3.2 -1 3
r 0.010202 0 1 rtProtoDV 4 ------- 0 0.2 1.2 -1 0
+ 0.010202 1 0 rtProtoDV 4 ------- 0 1.2 0.2 -1 4
- 0.010202 1 0 rtProtoDV 4 ------- 0 1.2 0.2 -1 4
+ 0.010202 1 3 rtProtoDV 4 ------- 0 1.2 3.2 -1 5
- 0.010202 1 3 rtProtoDV 4 ------- 0 1.2 3.2 -1 5
r 0.010202 0 2 rtProtoDV 4 ------- 0 0.2 2.2 -1 1
+ 0.010202 2 0 rtProtoDV 4 ------- 0 2.2 0.2 -1 6
- 0.010202 2 0 rtProtoDV 4 ------- 0 2.2 0.2 -1 6
+ 0.010202 2 3 rtProtoDV 4 ------- 0 2.2 3.2 -1 7
- 0.010202 2 3 rtProtoDV 4 ------- 0 2.2 3.2 -1 7
r 0.017134 2 0 rtProtoDV 4 ------- 0 2.2 0.2 -1 2
+ 0.017134 0 1 rtProtoDV 4 ------- 0 0.2 1.2 -1 8
- 0.017134 0 1 rtProtoDV 4 ------- 0 0.2 1.2 -1 8
+ 0.017134 0 2 rtProtoDV 4 ------- 0 0.2 2.2 -1 9
- 0.017134 0 2 rtProtoDV 4 ------- 0 0.2 2.2 -1 9
r 0.017134 2 3 rtProtoDV 4 ------- 0 2.2 3.2 -1 3
+ 0.017134 3 1 rtProtoDV 4 ------- 0 3.2 1.2 -1 10
- 0.017134 3 1 rtProtoDV 4 ------- 0 3.2 1.2 -1 10
+ 0.017134 3 2 rtProtoDV 4 ------- 0 3.2 2.2 -1 11
- 0.017134 3 2 rtProtoDV 4 ------- 0 3.2 2.2 -1 11
r 0.020234 1 0 rtProtoDV 4 ------- 0 1.2 0.2 -1 4
r 0.020234 1 3 rtProtoDV 4 ------- 0 1.2 3.2 -1 5
r 0.020234 2 0 rtProtoDV 4 ------- 0 2.2 0.2 -1 6
r 0.020234 2 3 rtProtoDV 4 ------- 0 2.2 3.2 -1 7
r 0.027166 0 1 rtProtoDV 4 ------- 0 0.2 1.2 -1 8
r 0.027166 0 2 rtProtoDV 4 ------- 0 0.2 2.2 -1 9
r 0.027166 3 1 rtProtoDV 4 ------- 0 3.2 1.2 -1 10
r 0.027166 3 2 rtProtoDV 4 ------- 0 3.2 2.2 -1 11
+ 0.044061 3 1 rtProtoDV 4 ------- 0 3.2 1.2 -1 12
- 0.044061 3 1 rtProtoDV 4 ------- 0 3.2 1.2 -1 12
+ 0.044061 3 2 rtProtoDV 4 ------- 0 3.2 2.2 -1 13
- 0.044061 3 2 rtProtoDV 4 ------- 0 3.2 2.2 -1 13
r 0.054093 3 1 rtProtoDV 4 ------- 0 3.2 1.2 -1 12
r 0.054093 3 2 rtProtoDV 4 ------- 0 3.2 2.2 -1 13
+ 0.27794 1 0 rtProtoDV 4 ------- 0 1.2 0.2 -1 14
- 0.27794 1 0 rtProtoDV 4 ------- 0 1.2 0.2 -1 14
+ 0.27794 1 3 rtProtoDV 4 ------- 0 1.2 3.2 -1 15
- 0.27794 1 3 rtProtoDV 4 ------- 0 1.2 3.2 -1 15
r 0.287972 1 0 rtProtoDV 4 ------- 0 1.2 0.2 -1 14
r 0.287972 1 3 rtProtoDV 4 ------- 0 1.2 3.2 -1 15
+ 0.5 0 1 tcp 40 ------- 0 0.0 1.0 0 16
- 0.5 0 1 tcp 40 ------- 0 0.0 1.0 0 16
+ 0.5 3 2 tcp 40 ------- 1 3.0 2.0 0 17
- 0.5 3 2 tcp 40 ------- 1 3.0 2.0 0 17
r 0.51032 0 1 tcp 40 ------- 0 0.0 1.0 0 16
+ 0.51032 1 0 ack 40 ------- 0 1.0 0.0 0 18
- 0.51032 1 0 ack 40 ------- 0 1.0 0.0 0 18
r 0.51032 3 2 tcp 40 ------- 1 3.0 2.0 0 17
+ 0.51032 2 3 ack 40 ------- 1 2.0 3.0 0 19
- 0.51032 2 3 ack 40 ------- 1 2.0 3.0 0 19
r 0.52064 1 0 ack 40 ------- 0 1.0 0.0 0 18
+ 0.52064 0 1 tcp 1040 ------- 0 0.0 1.0 1 20
- 0.52064 0 1 tcp 1040 ------- 0 0.0 1.0 1 20
+ 0.52064 0 1 tcp 1040 ------- 0 0.0 1.0 2 21
r 0.52064 2 3 ack 40 ------- 1 2.0 3.0 0 19
+ 0.52064 3 2 tcp 1040 ------- 1 3.0 2.0 1 22
- 0.52064 3 2 tcp 1040 ------- 1 3.0 2.0 1 22
+ 0.52064 3 2 tcp 1040 ------- 1 3.0 2.0 2 23
- 0.52896 0 1 tcp 1040 ------- 0 0.0 1.0 2 21
- 0.52896 3 2 tcp 1040 ------- 1 3.0 2.0 2 23
r 0.53896 0 1 tcp 1040 ------- 0 0.0 1.0 1 20
+ 0.53896 1 0 ack 40 ------- 0 1.0 0.0 1 24
- 0.53896 1 0 ack 40 ------- 0 1.0 0.0 1 24
r 0.53896 3 2 tcp 1040 ------- 1 3.0 2.0 1 22
+ 0.53896 2 3 ack 40 ------- 1 2.0 3.0 1 25
- 0.53896 2 3 ack 40 ------- 1 2.0 3.0 1 25
r 0.54728 0 1 tcp 1040 ------- 0 0.0 1.0 2 21
+ 0.54728 1 0 ack 40 ------- 0 1.0 0.0 2 26
- 0.54728 1 0 ack 40 ------- 0 1.0 0.0 2 26
r 0.54728 3 2 tcp 1040 ------- 1 3.0 2.0 2 23
+ 0.54728 2 3 ack 40 ------- 1 2.0 3.0 2 27
- 0.54728 2 3 ack 40 ------- 1 2.0 3.0 2 27
r 0.54928 1 0 ack 40 ------- 0 1.0 0.0 1 24
+ 0.54928 0 1 tcp 1040 ------- 0 0.0 1.0 3 28
- 0.54928 0 1 tcp 1040 ------- 0 0.0 1.0 3 28
+ 0.54928 0 1 tcp 1040 ------- 0 0.0 1.0 4 29
r 0.54928 2 3 ack 40 ------- 1 2.0 3.0 1 25
+ 0.54928 3 2 tcp 1040 ------- 1 3.0 2.0 3 30
- 0.54928 3 2 tcp 1040 ------- 1 3.0 2.0 3 30
+ 0.54928 3 2 tcp 1040 ------- 1 3.0 2.0 4 31
r 0.5576 1 0 ack 40 ------- 0 1.0 0.0 2 26
+ 0.5576 0 1 tcp 1040 ------- 0 0.0 1.0 5 32
+ 0.5576 0 1 tcp 1040 ------- 0 0.0 1.0 6 33
r 0.5576 2 3 ack 40 ------- 1 2.0 3.0 2 27
+ 0.5576 3 2 tcp 1040 ------- 1 3.0 2.0 5 34
+ 0.5576 3 2 tcp 1040 ------- 1 3.0 2.0 6 35
- 0.5576 0 1 tcp 1040 ------- 0 0.0 1.0 4 29
- 0.5576 3 2 tcp 1040 ------- 1 3.0 2.0 4 31
- 0.56592 0 1 tcp 1040 ------- 0 0.0 1.0 5 32
- 0.56592 3 2 tcp 1040 ------- 1 3.0 2.0 5 34
r 0.5676 0 1 tcp 1040 ------- 0 0.0 1.0 3 28
+ 0.5676 1 0 ack 40 ------- 0 1.0 0.0 3 36
- 0.5676 1 0 ack 40 ------- 0 1.0 0.0 3 36
r 0.5676 3 2 tcp 1040 ------- 1 3.0 2.0 3 30
+ 0.5676 2 3 ack 40 ------- 1 2.0 3.0 3 37
- 0.5676 2 3 ack 40 ------- 1 2.0 3.0 3 37
- 0.57424 0 1 tcp 1040 ------- 0 0.0 1.0 6 33
- 0.57424 3 2 tcp 1040 ------- 1 3.0 2.0 6 35
r 0.57592 0 1 tcp 1040 ------- 0 0.0 1.0 4 29
+ 0.57592 1 0 ack 40 ------- 0 1.0 0.0 4 38
- 0.57592 1 0 ack 40 ------- 0 1.0 0.0 4 38
r 0.57592 3 2 tcp 1040 ------- 1 3.0 2.0 4 31
+ 0.57592 2 3 ack 40 ------- 1 2.0 3.0 4 39
- 0.57592 2 3 ack 40 ------- 1 2.0 3.0 4 39
r 0.57792 1 0 ack 40 ------- 0 1.0 0.0 3 36
+ 0.57792 0 1 tcp 1040 ------- 0 0.0 1.0 7 40
+ 0.57792 0 1 tcp 1040 ------- 0 0.0 1.0 8 41
r 0.57792 2 3 ack 40 ------- 1 2.0 3.0 3 37
+ 0.57792 3 2 tcp 1040 ------- 1 3.0 2.0 7 42
+ 0.57792 3 2 tcp 1040 ------- 1 3.0 2.0 8 43
- 0.58256 0 1 tcp 1040 ------- 0 0.0 1.0 7 40
- 0.58256 3 2 tcp 1040 ------- 1 3.0 2.0 7 42
r 0.58424 0 1 tcp 1040 ------- 0 0.0 1.0 5 32
+ 0.58424 1 0 ack 40 ------- 0 1.0 0.0 5 44
- 0.58424 1 0 ack 40 ------- 0 1.0 0.0 5 44
r 0.58424 3 2 tcp 1040 ------- 1 3.0 2.0 5 34
+ 0.58424 2 3 ack 40 ------- 1 2.0 3.0 5 45
- 0.58424 2 3 ack 40 ------- 1 2.0 3.0 5 45
r 0.58624 1 0 ack 40 ------- 0 1.0 0.0 4 38
+ 0.58624 0 1 tcp 1040 ------- 0 0.0 1.0 9 46
+ 0.58624 0 1 tcp 1040 ------- 0 0.0 1.0 10 47
r 0.58624 2 3 ack 40 ------- 1 2.0 3.0 4 39
+ 0.58624 3 2 tcp 1040 ------- 1 3.0 2.0 9 48
+ 0.58624 3 2 tcp 1040 ------- 1 3.0 2.0 10 49
- 0.59088 0 1 tcp 1040 ------- 0 0.0 1.0 8 41
- 0.59088 3 2 tcp 1040 ------- 1 3.0 2.0 8 43
r 0.59256 0 1 tcp 1040 ------- 0 0.0 1.0 6 33
+ 0.59256 1 0 ack 40 ------- 0 1.0 0.0 6 50
- 0.59256 1 0 ack 40 ------- 0 1.0 0.0 6 50
r 0.59256 3 2 tcp 1040 ------- 1 3.0 2.0 6 35
+ 0.59256 2 3 ack 40 ------- 1 2.0 3.0 6 51
- 0.59256 2 3 ack 40 ------- 1 2.0 3.0 6 51
r 0.59456 1 0 ack 40 ------- 0 1.0 0.0 5 44
+ 0.59456 0 1 tcp 1040 ------- 0 0.0 1.0 11 52
+ 0.59456 0 1 tcp 1040 ------- 0 0.0 1.0 12 53
r 0.59456 2 3 ack 40 ------- 1 2.0 3.0 5 45
+ 0.59456 3 2 tcp 1040 ------- 1 3.0 2.0 11 54
+ 0.59456 3 2 tcp 1040 ------- 1 3.0 2.0 12 55
- 0.5992 0 1 tcp 1040 ------- 0 0.0 1.0 9 46
- 0.5992 3 2 tcp 1040 ------- 1 3.0 2.0 9 48
r 0.60088 0 1 tcp 1040 ------- 0 0.0 1.0 7 40
+ 0.60088 1 0 ack 40 ------- 0 1.0 0.0 7 56
- 0.60088 1 0 ack 40 ------- 0 1.0 0.0 7 56
r 0.60088 3 2 tcp 1040 ------- 1 3.0 2.0 7 42
+ 0.60088 2 3 ack 40 ------- 1 2.0 3.0 7 57
- 0.60088 2 3 ack 40 ------- 1 2.0 3.0 7 57
r 0.60288 1 0 ack 40 ------- 0 1.0 0.0 6 50
+ 0.60288 0 1 tcp 1040 ------- 0 0.0 1.0 13 58
+ 0.60288 0 1 tcp 1040 ------- 0 0.0 1.0 14 59
r 0.60288 2 3 ack 40 ------- 1 2.0 3.0 6 51
+ 0.60288 3 2 tcp 1040 ------- 1 3.0 2.0 13 60
+ 0.60288 3 2 tcp 1040 ------- 1 3.0 2.0 14 61
- 0.60752 0 1 tcp 1040 ------- 0 0.0 1.0 10 47
- 0.60752 3 2 tcp 1040 ------- 1 3.0 2.0 10 49
r 0.6092 0 1 tcp 1040 ------- 0 0.0 1.0 8 41
+ 0.6092 1 0 ack 40 ------- 0 1.0 0.0 8 62
- 0.6092 1 0 ack 40 ------- 0 1.0 0.0 8 62
r 0.6092 3 2 tcp 1040 ------- 1 3.0 2.0 8 43
+ 0.6092 2 3 ack 40 ------- 1 2.0 3.0 8 63
- 0.6092 2 3 ack 40 ------- 1 2.0 3.0 8 63
r 0.6112 1 0 ack 40 ------- 0 1.0 0.0 7 56
+ 0.6112 0 1 tcp 1040 ------- 0 0.0 1.0 15 64
+ 0.6112 0 1 tcp 1040 ------- 0 0.0 1.0 16 65
r 0.6112 2 3 ack 40 ------- 1 2.0 3.0 7 57
+ 0.6112 3 2 tcp 1040 ------- 1 3.0 2.0 15 66
+ 0.6112 3 2 tcp 1040 ------- 1 3.0 2.0 16 67
- 0.61584 0 1 tcp 1040 ------- 0 0.0 1.0 11 52
- 0.61584 3 2 tcp 1040 ------- 1 3.0 2.0 11 54
r 0.61752 0 1 tcp 1040 ------- 0 0.0 1.0 9 46
+ 0.61752 1 0 ack 40 ------- 0 1.0 0.0 9 68
- 0.61752 1 0 ack 40 ------- 0 1.0 0.0 9 68
r 0.61752 3 2 tcp 1040 ------- 1 3.0 2.0 9 48
+ 0.61752 2 3 ack 40 ------- 1 2.0 3.0 9 69
- 0.61752 2 3 ack 40 ------- 1 2.0 3.0 9 69
r 0.61952 1 0 ack 40 ------- 0 1.0 0.0 8 62
+ 0.61952 0 1 tcp 1040 ------- 0 0.0 1.0 17 70
+ 0.61952 0 1 tcp 1040 ------- 0 0.0 1.0 18 71
r 0.61952 2 3 ack 40 ------- 1 2.0 3.0 8 63
+ 0.61952 3 2 tcp 1040 ------- 1 3.0 2.0 17 72
+ 0.61952 3 2 tcp 1040 ------- 1 3.0 2.0 18 73
- 0.62416 0 1 tcp 1040 ------- 0 0.0 1.0 12 53
- 0.62416 3 2 tcp 1040 ------- 1 3.0 2.0 12 55
r 0.62584 0 1 tcp 1040 ------- 0 0.0 1.0 10 47
+ 0.62584 1 0 ack 40 ------- 0 1.0 0.0 10 74
- 0.62584 1 0 ack 40 ------- 0 1.0 0.0 10 74
r 0.62584 3 2 tcp 1040 ------- 1 3.0 2.0 10 49
+ 0.62584 2 3 ack 40 ------- 1 2.0 3.0 10 75
- 0.62584 2 3 ack 40 ------- 1 2.0 3.0 10 75
r 0.62784 1 0 ack 40 ------- 0 1.0 0.0 9 68
+ 0.62784 0 1 tcp 1040 ------- 0 0.0 1.0 19 76
+ 0.62784 0 1 tcp 1040 ------- 0 0.0 1.0 20 77
r 0.62784 2 3 ack 40 ------- 1 2.0 3.0 9 69
+ 0.62784 3 2 tcp 1040 ------- 1 3.0 2.0 19 78
+ 0.62784 3 2 tcp 1040 ------- 1 3.0 2.0 20 79
- 0.63248 0 1 tcp 1040 ------- 0 0.0 1.0 13 58
- 0.63248 3 2 tcp 1040 ------- 1 3.0 2.0 13 60
r 0.63416 0 1 tcp 1040 ------- 0 0.0 1.0 11 52
+ 0.63416 1 0 ack 40 ------- 0 1.0 0.0 11 80
- 0.63416 1 0 ack 40 ------- 0 1.0 0.0 11 80
r 0.63416 3 2 tcp 1040 ------- 1 3.0 2.0 11 54
+ 0.63416 2 3 ack 40 ------- 1 2.0 3.0 11 81
- 0.63416 2 3 ack 40 ------- 1 2.0 3.0 11 81
r 0.63616 1 0 ack 40 ------- 0 1.0 0.0 10 74
+ 0.63616 0 1 tcp 1040 ------- 0 0.0 1.0 21 82
+ 0.63616 0 1 tcp 1040 ------- 0 0.0 1.0 22 83
r 0.63616 2 3 ack 40 ------- 1 2.0 3.0 10 75
+ 0.63616 3 2 tcp 1040 ------- 1 3.0 2.0 21 84
+ 0.63616 3 2 tcp 1040 ------- 1 3.0 2.0 22 85
- 0.6408 0 1 tcp 1040 ------- 0 0.0 1.0 14 59
- 0.6408 3 2 tcp 1040 ------- 1 3.0 2.0 14 61
r 0.64248 0 1 tcp 1040 ------- 0 0.0 1.0 12 53
+ 0.64248 1 0 ack 40 ------- 0 1.0 0.0 12 86
- 0.64248 1 0 ack 40 ------- 0 1.0 0.0 12 86
r 0.64248 3 2 tcp 1040 ------- 1 3.0 2.0 12 55
+ 0.64248 2 3 ack 40 ------- 1 2.0 3.0 12 87
- 0.64248 2 3 ack 40 ------- 1 2.0 3.0 12 87
r 0.64448 1 0 ack 40 ------- 0 1.0 0.0 11 80
+ 0.64448 0 1 tcp 1040 ------- 0 0.0 1.0 23 88
+ 0.64448 0 1 tcp 1040 ------- 0 0.0 1.0 24 89
r 0.64448 2 3 ack 40 ------- 1 2.0 3.0 11 81
+ 0.64448 3 2 tcp 1040 ------- 1 3.0 2.0 23 90
+ 0.64448 3 2 tcp 1040 ------- 1 3.0 2.0 24 91
- 0.64912 0 1 tcp 1040 ------- 0 0.0 1.0 15 64
- 0.64912 3 2 tcp 1040 ------- 1 3.0 2.0 15 66
r 0.6508 0 1 tcp 1040 ------- 0 0.0 1.0 13 58
+ 0.6508 1 0 ack 40 ------- 0 1.0 0.0 13 92
- 0.6508 1 0 ack 40 ------- 0 1.0 0.0 13 92
r 0.6508 3 2 tcp 1040 ------- 1 3.0 2.0 13 60
+ 0.6508 2 3 ack 40 ------- 1 2.0 3.0 13 93
- 0.6508 2 3 ack 40 ------- 1 2.0 3.0 13 93
r 0.6528 1 0 ack 40 ------- 0 1.0 0.0 12 86
+ 0.6528 0 1 tcp 1040 ------- 0 0.0 1.0 25 94
+ 0.6528 0 1 tcp 1040 ------- 0 0.0 1.0 26 95
r 0.6528 2 3 ack 40 ------- 1 2.0 3.0 12 87
+ 0.6528 3 2 tcp 1040 ------- 1 3.0 2.0 25 96
+ 0.6528 3 2 tcp 1040 ------- 1 3.0 2.0 26 97
- 0.65744 0 1 tcp 1040 ------- 0 0.0 1.0 16 65
- 0.65744 3 2 tcp 1040 ------- 1 3.0 2.0 16 67
r 0.65912 0 1 tcp 1040 ------- 0 0.0 1.0 14 59
+ 0.65912 1 0 ack 40 ------- 0 1.0 0.0 14 98
- 0.65912 1 0 ack 40 ------- 0 1.0 0.0 14 98
r 0.65912 3 2 tcp 1040 ------- 1 3.0 2.0 14 61
+ 0.65912 2 3 ack 40 ------- 1 2.0 3.0 14 99
- 0.65912 2 3 ack 40 ------- 1 2.0 3.0 14 99
r 0.66112 1 0 ack 40 ------- 0 1.0 0.0 13 92
+ 0.66112 0 1 tcp 1040 ------- 0 0.0 1.0 27 100
+ 0.66112 0 1 tcp 1040 ------- 0 0.0 1.0 28 101
r 0.66112 2 3 ack 40 ------- 1 2.0 3.0 13 93
+ 0.66112 3 2 tcp 1040 ------- 1 3.0 2.0 27 102
+ 0.66112 3 2 tcp 1040 ------- 1 3.0 2.0 28 103
- 0.66576 0 1 tcp 1040 ------- 0 0.0 1.0 17 70
- 0.66576 3 2 tcp 1040 ------- 1 3.0 2.0 17 72
r 0.66744 0 1 tcp 1040 ------- 0 0.0 1.0 15 64
+ 0.66744 1 0 ack 40 ------- 0 1.0 0.0 15 104
- 0.66744 1 0 ack 40 ------- 0 1.0 0.0 15 104
r 0.66744 3 2 tcp 1040 ------- 1 3.0 2.0 15 66
+ 0.66744 2 3 ack 40 ------- 1 2.0 3.0 15 105
- 0.66744 2 3 ack 40 ------- 1 2.0 3.0 15 105
r 0.66944 1 0 ack 40 ------- 0 1.0 0.0 14 98
+ 0.66944 0 1 tcp 1040 ------- 0 0.0 1.0 29 106
+ 0.66944 0 1 tcp 1040 ------- 0 0.0 1.0 30 107
r 0.66944 2 3 ack 40 ------- 1 2.0 3.0 14 99
+ 0.66944 3 2 tcp 1040 ------- 1 3.0 2.0 29 108
+ 0.66944 3 2 tcp 1040 ------- 1 3.0 2.0 30 109
- 0.67408 0 1 tcp 1040 ------- 0 0.0 1.0 18 71
- 0.67408 3 2 tcp 1040 ------- 1 3.0 2.0 18 73
r 0.67576 0 1 tcp 1040 ------- 0 0.0 1.0 16 65
+ 0.67576 1 0 ack 40 ------- 0 1.0 0.0 16 110
- 0.67576 1 0 ack 40 ------- 0 1.0 0.0 16 110
r 0.67576 3 2 tcp 1040 ------- 1 3.0 2.0 16 67
+ 0.67576 2 3 ack 40 ------- 1 2.0 3.0 16 111
- 0.67576 2 3 ack 40 ------- 1 2.0 3.0 16 111
r 0.67776 1 0 ack 40 ------- 0 1.0 0.0 15 104
+ 0.67776 0 1 tcp 1040 ------- 0 0.0 1.0 31 112
+ 0.67776 0 1 tcp 1040 ------- 0 0.0 1.0 32 113
r 0.67776 2 3 ack 40 ------- 1 2.0 3.0 15 105
+ 0.67776 3 2 tcp 1040 ------- 1 3.0 2.0 31 114
+ 0.67776 3 2 tcp 1040 ------- 1 3.0 2.0 32 115
- 0.6824 0 1 tcp 1040 ------- 0 0.0 1.0 19 76
- 0.6824 3 2 tcp 1040 ------- 1 3.0 2.0 19 78
r 0.68408 0 1 tcp 1040 ------- 0 0.0 1.0 17 70
+ 0.68408 1 0 ack 40 ------- 0 1.0 0.0 17 116
- 0.68408 1 0 ack 40 ------- 0 1.0 0.0 17 116
r 0.68408 3 2 tcp 1040 ------- 1 3.0 2.0 17 72
+ 0.68408 2 3 ack 40 ------- 1 2.0 3.0 17 117
- 0.68408 2 3 ack 40 ------- 1 2.0 3.0 17 117
r 0.68608 1 0 ack 40 ------- 0 1.0 0.0 16 110
+ 0.68608 0 1 tcp 1040 ------- 0 0.0 1.0 33 118
+ 0.68608 0 1 tcp 1040 ------- 0 0.0 1.0 34 119
r 0.68608 2 3 ack 40 ------- 1 2.0 3.0 16 111
+ 0.68608 3 2 tcp 1040 ------- 1 3.0 2.0 33 120
+ 0.68608 3 2 tcp 1040 ------- 1 3.0 2.0 34 121
- 0.69072 0 1 tcp 1040 ------- 0 0.0 1.0 20 77
- 0.69072 3 2 tcp 1040 ------- 1 3.0 2.0 20 79
r 0.6924 0 1 tcp 1040 ------- 0 0.0 1.0 18 71
+ 0.6924 1 0 ack 40 ------- 0 1.0 0.0 18 122
- 0.6924 1 0 ack 40 ------- 0 1.0 0.0 18 122
r 0.6924 3 2 tcp 1040 ------- 1 3.0 2.0 18 73
+ 0.6924 2 3 ack 40 ------- 1 2.0 3.0 18 123
- 0.6924 2 3 ack 40 ------- 1 2.0 3.0 18 123
r 0.6944 1 0 ack 40 ------- 0 1.0 0.0 17 116
+ 0.6944 0 1 tcp 1040 ------- 0 0.0 1.0 35 124
+ 0.6944 0 1 tcp 1040 ------- 0 0.0 1.0 36 125
r 0.6944 2 3 ack 40 ------- 1 2.0 3.0 17 117
+ 0.6944 3 2 tcp 1040 ------- 1 3.0 2.0 35 126
+ 0.6944 3 2 tcp 1040 ------- 1 3.0 2.0 36 127
- 0.69904 0 1 tcp 1040 ------- 0 0.0 1.0 21 82
- 0.69904 3 2 tcp 1040 ------- 1 3.0 2.0 21 84
r 0.70072 0 1 tcp 1040 ------- 0 0.0 1.0 19 76
+ 0.70072 1 0 ack 40 ------- 0 1.0 0.0 19 128
- 0.70072 1 0 ack 40 ------- 0 1.0 0.0 19 128
r 0.70072 3 2 tcp 1040 ------- 1 3.0 2.0 19 78
+ 0.70072 2 3 ack 40 ------- 1 2.0 3.0 19 129
- 0.70072 2 3 ack 40 ------- 1 2.0 3.0 19 129
r 0.70272 1 0 ack 40 ------- 0 1.0 0.0 18 122
+ 0.70272 0 1 tcp 1040 ------- 0 0.0 1.0 37 130
+ 0.70272 0 1 tcp 1040 ------- 0 0.0 1.0 38 131
r 0.70272 2 3 ack 40 ------- 1 2.0 3.0 18 123
+ 0.70272 3 2 tcp 1040 ------- 1 3.0 2.0 37 132
+ 0.70272 3 2 tcp 1040 ------- 1 3.0 2.0 38 133
- 0.70736 0 1 tcp 1040 ------- 0 0.0 1.0 22 83
- 0.70736 3 2 tcp 1040 ------- 1 3.0 2.0 22 85
r 0.70904 0 1 tcp 1040 ------- 0 0.0 1.0 20 77
+ 0.70904 1 0 ack 40 ------- 0 1.0 0.0 20 134
- 0.70904 1 0 ack 40 ------- 0 1.0 0.0 20 134
r 0.70904 3 2 tcp 1040 ------- 1 3.0 2.0 20 79
+ 0.70904 2 3 ack 40 ------- 1 2.0 3.0 20 135
- 0.70904 2 3 ack 40 ------- 1 2.0 3.0 20 135
r 0.71104 1 0 ack 40 ------- 0 1.0 0.0 19 128
+ 0.71104 0 1 tcp 1040 ------- 0 0.0 1.0 39 136
r 0.71104 2 3 ack 40 ------- 1 2.0 3.0 19 129
+ 0.71104 3 2 tcp 1040 ------- 1 3.0 2.0 39 137
- 0.71568 0 1 tcp 1040 ------- 0 0.0 1.0 23 88
- 0.71568 3 2 tcp 1040 ------- 1 3.0 2.0 23 90
r 0.71736 0 1 tcp 1040 ------- 0 0.0 1.0 21 82
+ 0.71736 1 0 ack 40 ------- 0 1.0 0.0 21 138
- 0.71736 1 0 ack 40 ------- 0 1.0 0.0 21 138
r 0.71736 3 2 tcp 1040 ------- 1 3.0 2.0 21 84
+ 0.71736 2 3 ack 40 ------- 1 2.0 3.0 21 139
- 0.71736 2 3 ack 40 ------- 1 2.0 3.0 21 139
r 0.71936 1 0 ack 40 ------- 0 1.0 0.0 20 134
+ 0.71936 0 1 tcp 1040 ------- 0 0.0 1.0 40 140
r 0.71936 2 3 ack 40 ------- 1 2.0 3.0 20 135
+ 0.71936 3 2 tcp 1040 ------- 1 3.0 2.0 40 141
- 0.724 0 1 tcp 1040 ------- 0 0.0 1.0 24 89
- 0.724 3 2 tcp 1040 ------- 1 3.0 2.0 24 91
r 0.72568 0 1 tcp 1040 ------- 0 0.0 1.0 22 83
+ 0.72568 1 0 ack 40 ------- 0 1.0 0.0 22 142
- 0.72568 1 0 ack 40 ------- 0 1.0 0.0 22 142
r 0.72568 3 2 tcp 1040 ------- 1 3.0 2.0 22 85
+ 0.72568 2 3 ack 40 ------- 1 2.0 3.0 22 143
- 0.72568 2 3 ack 40 ------- 1 2.0 3.0 22 143
r 0.72768 1 0 ack 40 ------- 0 1.0 0.0 21 138
+ 0.72768 0 1 tcp 1040 ------- 0 0.0 1.0 41 144
r 0.72768 2 3 ack 40 ------- 1 2.0 3.0 21 139
+ 0.72768 3 2 tcp 1040 ------- 1 3.0 2.0 41 145
- 0.73232 0 1 tcp 1040 ------- 0 0.0 1.0 25 94
- 0.73232 3 2 tcp 1040 ------- 1 3.0 2.0 25 96
r 0.734 0 1 tcp 1040 ------- 0 0.0 1.0 23 88
+ 0.734 1 0 ack 40 ------- 0 1.0 0.0 23 146
- 0.734 1 0 ack 40 ------- 0 1.0 0.0 23 146
r 0.734 3 2 tcp 1040 ------- 1 3.0 2.0 23 90
+ 0.734 2 3 ack 40 ------- 1 2.0 3.0 23 147
- 0.734 2 3 ack 40 ------- 1 2.0 3.0 23 147
r 0.736 1 0 ack 40 ------- 0 1.0 0.0 22 142
+ 0.736 0 1 tcp 1040 ------- 0 0.0 1.0 42 148
r 0.736 2 3 ack 40 ------- 1 2.0 3.0 22 143
+ 0.736 3 2 tcp 1040 ------- 1 3.0 2.0 42 149
- 0.74064 0 1 tcp 1040 ------- 0 0.0 1.0 26 95
- 0.74064 3 2 tcp 1040 ------- 1 3.0 2.0 26 97
r 0.74232 0 1 tcp 1040 ------- 0 0.0 1.0 24 89
+ 0.74232 1 0 ack 40 ------- 0 1.0 0.0 24 150
- 0.74232 1 0 ack 40 ------- 0 1.0 0.0 24 150
r 0.74232 3 2 tcp 1040 ------- 1 3.0 2.0 24 91
+ 0.74232 2 3 ack 40 ------- 1 2.0 3.0 24 151
- 0.74232 2 3 ack 40 ------- 1 2.0 3.0 24 151
r 0.74432 1 0 ack 40 ------- 0 1.0 0.0 23 146
+ 0.74432 0 1 tcp 1040 ------- 0 0.0 1.0 43 152
r 0.74432 2 3 ack 40 ------- 1 2.0 3.0 23 147
+ 0.74432 3 2 tcp 1040 ------- 1 3.0 2.0 43 153
- 0.74896 0 1 tcp 1040 ------- 0 0.0 1.0 27 100
- 0.74896 3 2 tcp 1040 ------- 1 3.0 2.0 27 102
r 0.75064 0 1 tcp 1040 ------- 0 0.0 1.0 25 94
+ 0.75064 1 0 ack 40 ------- 0 1.0 0.0 25 154
- 0.75064 1 0 ack 40 ------- 0 1.0 0.0 25 154
r 0.75064 3 2 tcp 1040 ------- 1 3.0 2.0 25 96
+ 0.75064 2 3 ack 40 ------- 1 2.0 3.0 25 155
- 0.75064 2 3 ack 40 ------- 1 2.0 3.0 25 155
r 0.75264 1 0 ack 40 ------- 0 1.0 0.0 24 150
+ 0.75264 0 1 tcp 1040 ------- 0 0.0 1.0 44 156
r 0.75264 2 3 ack 40 ------- 1 2.0 3.0 24 151
+ 0.75264 3 2 tcp 1040 ------- 1 3.0 2.0 44 157
- 0.75728 0 1 tcp 1040 ------- 0 0.0 1.0 28 101
- 0.75728 3 2 tcp 1040 ------- 1 3.0 2.0 28 103
r 0.75896 0 1 tcp 1040 ------- 0 0.0 1.0 26 95
+ 0.75896 1 0 ack 40 ------- 0 1.0 0.0 26 158
- 0.75896 1 0 ack 40 ------- 0 1.0 0.0 26 158
r 0.75896 3 2 tcp 1040 ------- 1 3.0 2.0 26 97
+ 0.75896 2 3 ack 40 ------- 1 2.0 3.0 26 159
- 0.75896 2 3 ack 40 ------- 1 2.0 3.0 26 159
r 0.76096 1 0 ack 40 ------- 0 1.0 0.0 25 154
+ 0.76096 0 1 tcp 1040 ------- 0 0.0 1.0 45 160
r 0.76096 2 3 ack 40 ------- 1 2.0 3.0 25 155
+ 0.76096 3 2 tcp 1040 ------- 1 3.0 2.0 45 161
- 0.7656 0 1 tcp 1040 ------- 0 0.0 1.0 29 106
- 0.7656 3 2 tcp 1040 ------- 1 3.0 2.0 29 108
r 0.76728 0 1 tcp 1040 ------- 0 0.0 1.0 27 100
+ 0.76728 1 0 ack 40 ------- 0 1.0 0.0 27 162
- 0.76728 1 0 ack 40 ------- 0 1.0 0.0 27 162
r 0.76728 3 2 tcp 1040 ------- 1 3.0 2.0 27 102
+ 0.76728 2 3 ack 40 ------- 1 2.0 3.0 27 163
- 0.76728 2 3 ack 40 ------- 1 2.0 3.0 27 163
r 0.76928 1 0 ack 40 ------- 0 1.0 0.0 26 158
+ 0.76928 0 1 tcp 1040 ------- 0 0.0 1.0 46 164
r 0.76928 2 3 ack 40 ------- 1 2.0 3.0 26 159
+ 0.76928 3 2 tcp 1040 ------- 1 3.0 2.0 46 165
- 0.77392 0 1 tcp 1040 ------- 0 0.0 1.0 30 107
- 0.77392 3 2 tcp 1040 ------- 1 3.0 2.0 30 109
r 0.7756 0 1 tcp 1040 ------- 0 0.0 1.0 28 101
+ 0.7756 1 0 ack 40 ------- 0 1.0 0.0 28 166
- 0.7756 1 0 ack 40 ------- 0 1.0 0.0 28 166
r 0.7756 3 2 tcp 1040 ------- 1 3.0 2.0 28 103
+ 0.7756 2 3 ack 40 ------- 1 2.0 3.0 28 167
- 0.7756 2 3 ack 40 ------- 1 2.0 3.0 28 167
r 0.7776 1 0 ack 40 ------- 0 1.0 0.0 27 162
+ 0.7776 0 1 tcp 1040 ------- 0 0.0 1.0 47 168
r 0.7776 2 3 ack 40 ------- 1 2.0 3.0 27 163
+ 0.7776 3 2 tcp 1040 ------- 1 3.0 2.0 47 169
- 0.78224 0 1 tcp 1040 ------- 0 0.0 1.0 31 112
- 0.78224 3 2 tcp 1040 ------- 1 3.0 2.0 31 114
r 0.78392 0 1 tcp 1040 ------- 0 0.0 1.0 29 106
+ 0.78392 1 0 ack 40 ------- 0 1.0 0.0 29 170
- 0.78392 1 0 ack 40 ------- 0 1.0 0.0 29 170
r 0.78392 3 2 tcp 1040 ------- 1 3.0 2.0 29 108
+ 0.78392 2 3 ack 40 ------- 1 2.0 3.0 29 171
- 0.78392 2 3 ack 40 ------- 1 2.0 3.0 29 171
r 0.78592 1 0 ack 40 ------- 0 1.0 0.0 28 166
+ 0.78592 0 1 tcp 1040 ------- 0 0.0 1.0 48 172
r 0.78592 2 3 ack 40 ------- 1 2.0 3.0 28 167
+ 0.78592 3 2 tcp 1040 ------- 1 3.0 2.0 48 173
- 0.79056 0 1 tcp 1040 ------- 0 0.0 1.0 32 113
- 0.79056 3 2 tcp 1040 ------- 1 3.0 2.0 32 115
r 0.79224 0 1 tcp 1040 ------- 0 0.0 1.0 30 107
+ 0.79224 1 0 ack 40 ------- 0 1.0 0.0 30 174
- 0.79224 1 0 ack 40 ------- 0 1.0 0.0 30 174
r 0.79224 3 2 tcp 1040 ------- 1 3.0 2.0 30 109
+ 0.79224 2 3 ack 40 ------- 1 2.0 3.0 30 175
- 0.79224 2 3 ack 40 ------- 1 2.0 3.0 30 175
r 0.79424 1 0 ack 40 ------- 0 1.0 0.0 29 170
+ 0.79424 0 1 tcp 1040 ------- 0 0.0 1.0 49 176
r 0.79424 2 3 ack 40 ------- 1 2.0 3.0 29 171
+ 0.79424 3 2 tcp 1040 ------- 1 3.0 2.0 49 177
- 0.79888 0 1 tcp 1040 ------- 0 0.0 1.0 33 118
- 0.79888 3 2 tcp 1040 ------- 1 3.0 2.0 33 120
r 0.80056 0 1 tcp 1040 ------- 0 0.0 1.0 31 112
+ 0.80056 1 0 ack 40 ------- 0 1.0 0.0 31 178
- 0.80056 1 0 ack 40 ------- 0 1.0 0.0 31 178
r 0.80056 3 2 tcp 1040 ------- 1 3.0 2.0 31 114
+ 0.80056 2 3 ack 40 ------- 1 2.0 3.0 31 179
- 0.80056 2 3 ack 40 ------- 1 2.0 3.0 31 179
r 0.80256 1 0 ack 40 ------- 0 1.0 0.0 30 174
+ 0.80256 0 1 tcp 1040 ------- 0 0.0 1.0 50 180
r 0.80256 2 3 ack 40 ------- 1 2.0 3.0 30 175
+ 0.80256 3 2 tcp 1040 ------- 1 3.0 2.0 50 181
- 0.8072 0 1 tcp 1040 ------- 0 0.0 1.0 34 119
- 0.8072 3 2 tcp 1040 ------- 1 3.0 2.0 34 121
r 0.80888 0 1 tcp 1040 ------- 0 0.0 1.0 32 113
+ 0.80888 1 0 ack 40 ------- 0 1.0 0.0 32 182
- 0.80888 1 0 ack 40 ------- 0 1.0 0.0 32 182
r 0.80888 3 2 tcp 1040 ------- 1 3.0 2.0 32 115
+ 0.80888 2 3 ack 40 ------- 1 2.0 3.0 32 183
- 0.80888 2 3 ack 40 ------- 1 2.0 3.0 32 183
r 0.81088 1 0 ack 40 ------- 0 1.0 0.0 31 178
+ 0.81088 0 1 tcp 1040 ------- 0 0.0 1.0 51 184
r 0.81088 2 3 ack 40 ------- 1 2.0 3.0 31 179
+ 0.81088 3 2 tcp 1040 ------- 1 3.0 2.0 51 185
- 0.81552 0 1 tcp 1040 ------- 0 0.0 1.0 35 124
- 0.81552 3 2 tcp 1040 ------- 1 3.0 2.0 35 126
r 0.8172 0 1 tcp 1040 ------- 0 0.0 1.0 33 118
+ 0.8172 1 0 ack 40 ------- 0 1.0 0.0 33 186
- 0.8172 1 0 ack 40 ------- 0 1.0 0.0 33 186
r 0.8172 3 2 tcp 1040 ------- 1 3.0 2.0 33 120
+ 0.8172 2 3 ack 40 ------- 1 2.0 3.0 33 187
- 0.8172 2 3 ack 40 ------- 1 2.0 3.0 33 187
r 0.8192 1 0 ack 40 ------- 0 1.0 0.0 32 182
+ 0.8192 0 1 tcp 1040 ------- 0 0.0 1.0 52 188
r 0.8192 2 3 ack 40 ------- 1 2.0 3.0 32 183
+ 0.8192 3 2 tcp 1040 ------- 1 3.0 2.0 52 189
- 0.82384 0 1 tcp 1040 ------- 0 0.0 1.0 36 125
- 0.82384 3 2 tcp 1040 ------- 1 3.0 2.0 36 127
r 0.82552 0 1 tcp 1040 ------- 0 0.0 1.0 34 119
+ 0.82552 1 0 ack 40 ------- 0 1.0 0.0 34 190
- 0.82552 1 0 ack 40 ------- 0 1.0 0.0 34 190
r 0.82552 3 2 tcp 1040 ------- 1 3.0 2.0 34 121
+ 0.82552 2 3 ack 40 ------- 1 2.0 3.0 34 191
- 0.82552 2 3 ack 40 ------- 1 2.0 3.0 34 191
r 0.82752 1 0 ack 40 ------- 0 1.0 0.0 33 186
+ 0.82752 0 1 tcp 1040 ------- 0 0.0 1.0 53 192
r 0.82752 2 3 ack 40 ------- 1 2.0 3.0 33 187
+ 0.82752 3 2 tcp 1040 ------- 1 3.0 2.0 53 193
- 0.83216 0 1 tcp 1040 ------- 0 0.0 1.0 37 130
- 0.83216 3 2 tcp 1040 ------- 1 3.0 2.0 37 132
r 0.83384 0 1 tcp 1040 ------- 0 0.0 1.0 35 124
+ 0.83384 1 0 ack 40 ------- 0 1.0 0.0 35 194
- 0.83384 1 0 ack 40 ------- 0 1.0 0.0 35 194
r 0.83384 3 2 tcp 1040 ------- 1 3.0 2.0 35 126
+ 0.83384 2 3 ack 40 ------- 1 2.0 3.0 35 195
- 0.83384 2 3 ack 40 ------- 1 2.0 3.0 35 195
r 0.83584 1 0 ack 40 ------- 0 1.0 0.0 34 190
+ 0.83584 0 1 tcp 1040 ------- 0 0.0 1.0 54 196
r 0.83584 2 3 ack 40 ------- 1 2.0 3.0 34 191
+ 0.83584 3 2 tcp 1040 ------- 1 3.0 2.0 54 197
- 0.84048 0 1 tcp 1040 ------- 0 0.0 1.0 38 131
- 0.84048 3 2 tcp 1040 ------- 1 3.0 2.0 38 133
r 0.84216 0 1 tcp 1040 ------- 0 0.0 1.0 36 125
+ 0.84216 1 0 ack 40 ------- 0 1.0 0.0 36 198
- 0.84216 1 0 ack 40 ------- 0 1.0 0.0 36 198
r 0.84216 3 2 tcp 1040 ------- 1 3.0 2.0 36 127
+ 0.84216 2 3 ack 40 ------- 1 2.0 3.0 36 199
- 0.84216 2 3 ack 40 ------- 1 2.0 3.0 36 199
r 0.84416 1 0 ack 40 ------- 0 1.0 0.0 35 194
+ 0.84416 0 1 tcp 1040 ------- 0 0.0 1.0 55 200
r 0.84416 2 3 ack 40 ------- 1 2.0 3.0 35 195
+ 0.84416 3 2 tcp 1040 ------- 1 3.0 2.0 55 201
- 0.8488 0 1 tcp 1040 ------- 0 0.0 1.0 39 136
- 0.8488 3 2 tcp 1040 ------- 1 3.0 2.0 39 137
r 0.85048 0 1 tcp 1040 ------- 0 0.0 1.0 37 130
+ 0.85048 1 0 ack 40 ------- 0 1.0 0.0 37 202
- 0.85048 1 0 ack 40 ------- 0 1.0 0.0 37 202
r 0.85048 3 2 tcp 1040 ------- 1 3.0 2.0 37 132
+ 0.85048 2 3 ack 40 ------- 1 2.0 3.0 37 203
- 0.85048 2 3 ack 40 ------- 1 2.0 3.0 37 203
r 0.85248 1 0 ack 40 ------- 0 1.0 0.0 36 198
+ 0.85248 0 1 tcp 1040 ------- 0 0.0 1.0 56 204
r 0.85248 2 3 ack 40 ------- 1 2.0 3.0 36 199
+ 0.85248 3 2 tcp 1040 ------- 1 3.0 2.0 56 205
- 0.85712 0 1 tcp 1040 ------- 0 0.0 1.0 40 140
- 0.85712 3 2 tcp 1040 ------- 1 3.0 2.0 40 141
r 0.8588 0 1 tcp 1040 ------- 0 0.0 1.0 38 131
+ 0.8588 1 0 ack 40 ------- 0 1.0 0.0 38 206
- 0.8588 1 0 ack 40 ------- 0 1.0 0.0 38 206
r 0.8588 3 2 tcp 1040 ------- 1 3.0 2.0 38 133
+ 0.8588 2 3 ack 40 ------- 1 2.0 3.0 38 207
- 0.8588 2 3 ack 40 ------- 1 2.0 3.0 38 207
r 0.8608 1 0 ack 40 ------- 0 1.0 0.0 37 202
+ 0.8608 0 1 tcp 1040 ------- 0 0.0 1.0 57 208
r 0.8608 2 3 ack 40 ------- 1 2.0 3.0 37 203
+ 0.8608 3 2 tcp 1040 ------- 1 3.0 2.0 57 209
- 0.86544 0 1 tcp 1040 ------- 0 0.0 1.0 41 144
- 0.86544 3 2 tcp 1040 ------- 1 3.0 2.0 41 145
r 0.86712 0 1 tcp 1040 ------- 0 0.0 1.0 39 136
+ 0.86712 1 0 ack 40 ------- 0 1.0 0.0 39 210
- 0.86712 1 0 ack 40 ------- 0 1.0 0.0 39 210
r 0.86712 3 2 tcp 1040 ------- 1 3.0 2.0 39 137
+ 0.86712 2 3 ack 40 ------- 1 2.0 3.0 39 211
- 0.86712 2 3 ack 40 ------- 1 2.0 3.0 39 211
r 0.86912 1 0 ack 40 ------- 0 1.0 0.0 38 206
+ 0.86912 0 1 tcp 1040 ------- 0 0.0 1.0 58 212
r 0.86912 2 3 ack 40 ------- 1 2.0 3.0 38 207
+ 0.86912 3 2 tcp 1040 ------- 1 3.0 2.0 58 213
- 0.87376 0 1 tcp 1040 ------- 0 0.0 1.0 42 148
- 0.87376 3 2 tcp 1040 ------- 1 3.0 2.0 42 149
r 0.87544 0 1 tcp 1040 ------- 0 0.0 1.0 40 140
+ 0.87544 1 0 ack 40 ------- 0 1.0 0.0 40 214
- 0.87544 1 0 ack 40 ------- 0 1.0 0.0 40 214
r 0.87544 3 2 tcp 1040 ------- 1 3.0 2.0 40 141
+ 0.87544 2 3 ack 40 ------- 1 2.0 3.0 40 215
- 0.87544 2 3 ack 40 ------- 1 2.0 3.0 40 215
r 0.87744 1 0 ack 40 ------- 0 1.0 0.0 39 210
+ 0.87744 0 1 tcp 1040 ------- 0 0.0 1.0 59 216
r 0.87744 2 3 ack 40 ------- 1 2.0 3.0 39 211
+ 0.87744 3 2 tcp 1040 ------- 1 3.0 2.0 59 217
- 0.88208 0 1 tcp 1040 ------- 0 0.0 1.0 43 152
- 0.88208 3 2 tcp 1040 ------- 1 3.0 2.0 43 153
r 0.88376 0 1 tcp 1040 ------- 0 0.0 1.0 41 144
+ 0.88376 1 0 ack 40 ------- 0 1.0 0.0 41 218
- 0.88376 1 0 ack 40 ------- 0 1.0 0.0 41 218
r 0.88376 3 2 tcp 1040 ------- 1 3.0 2.0 41 145
+ 0.88376 2 3 ack 40 ------- 1 2.0 3.0 41 219
- 0.88376 2 3 ack 40 ------- 1 2.0 3.0 41 219
r 0.88576 1 0 ack 40 ------- 0 1.0 0.0 40 214
+ 0.88576 0 1 tcp 1040 ------- 0 0.0 1.0 60 220
r 0.88576 2 3 ack 40 ------- 1 2.0 3.0 40 215
+ 0.88576 3 2 tcp 1040 ------- 1 3.0 2.0 60 221
- 0.8904 0 1 tcp 1040 ------- 0 0.0 1.0 44 156
- 0.8904 3 2 tcp 1040 ------- 1 3.0 2.0 44 157
r 0.89208 0 1 tcp 1040 ------- 0 0.0 1.0 42 148
+ 0.89208 1 0 ack 40 ------- 0 1.0 0.0 42 222
- 0.89208 1 0 ack 40 ------- 0 1.0 0.0 42 222
r 0.89208 3 2 tcp 1040 ------- 1 3.0 2.0 42 149
+ 0.89208 2 3 ack 40 ------- 1 2.0 3.0 42 223
- 0.89208 2 3 ack 40 ------- 1 2.0 3.0 42 223
r 0.89408 1 0 ack 40 ------- 0 1.0 0.0 41 218
+ 0.89408 0 1 tcp 1040 ------- 0 0.0 1.0 61 224
r 0.89408 2 3 ack 40 ------- 1 2.0 3.0 41 219
+ 0.89408 3 2 tcp 1040 ------- 1 3.0 2.0 61 225
- 0.89872 0 1 tcp 1040 ------- 0 0.0 1.0 45 160
- 0.89872 3 2 tcp 1040 ------- 1 3.0 2.0 45 161
r 0.9004 0 1 tcp 1040 ------- 0 0.0 1.0 43 152
+ 0.9004 1 0 ack 40 ------- 0 1.0 0.0 43 226
- 0.9004 1 0 ack 40 ------- 0 1.0 0.0 43 226
r 0.9004 3 2 tcp 1040 ------- 1 3.0 2.0 43 153
+ 0.9004 2 3 ack 40 ------- 1 2.0 3.0 43 227
- 0.9004 2 3 ack 40 ------- 1 2.0 3.0 43 227
r 0.9024 1 0 ack 40 ------- 0 1.0 0.0 42 222
+ 0.9024 0 1 tcp 1040 ------- 0 0.0 1.0 62 228
r 0.9024 2 3 ack 40 ------- 1 2.0 3.0 42 223
+ 0.9024 3 2 tcp 1040 ------- 1 3.0 2.0 62 229
- 0.90704 0 1 tcp 1040 ------- 0 0.0 1.0 46 164
- 0.90704 3 2 tcp 1040 ------- 1 3.0 2.0 46 165
r 0.90872 0 1 tcp 1040 ------- 0 0.0 1.0 44 156
+ 0.90872 1 0 ack 40 ------- 0 1.0 0.0 44 230
- 0.90872 1 0 ack 40 ------- 0 1.0 0.0 44 230
r 0.90872 3 2 tcp 1040 ------- 1 3.0 2.0 44 157
+ 0.90872 2 3 ack 40 ------- 1 2.0 3.0 44 231
- 0.90872 2 3 ack 40 ------- 1 2.0 3.0 44 231
r 0.91072 1 0 ack 40 ------- 0 1.0 0.0 43 226
+ 0.91072 0 1 tcp 1040 ------- 0 0.0 1.0 63 232
r 0.91072 2 3 ack 40 ------- 1 2.0 3.0 43 227
+ 0.91072 3 2 tcp 1040 ------- 1 3.0 2.0 63 233
- 0.91536 0 1 tcp 1040 ------- 0 0.0 1.0 47 168
- 0.91536 3 2 tcp 1040 ------- 1 3.0 2.0 47 169
r 0.91704 0 1 tcp 1040 ------- 0 0.0 1.0 45 160
+ 0.91704 1 0 ack 40 ------- 0 1.0 0.0 45 234
- 0.91704 1 0 ack 40 ------- 0 1.0 0.0 45 234
r 0.91704 3 2 tcp 1040 ------- 1 3.0 2.0 45 161
+ 0.91704 2 3 ack 40 ------- 1 2.0 3.0 45 235
- 0.91704 2 3 ack 40 ------- 1 2.0 3.0 45 235
r 0.91904 1 0 ack 40 ------- 0 1.0 0.0 44 230
+ 0.91904 0 1 tcp 1040 ------- 0 0.0 1.0 64 236
r 0.91904 2 3 ack 40 ------- 1 2.0 3.0 44 231
+ 0.91904 3 2 tcp 1040 ------- 1 3.0 2.0 64 237
- 0.92368 0 1 tcp 1040 ------- 0 0.0 1.0 48 172
- 0.92368 3 2 tcp 1040 ------- 1 3.0 2.0 48 173
r 0.92536 0 1 tcp 1040 ------- 0 0.0 1.0 46 164
+ 0.92536 1 0 ack 40 ------- 0 1.0 0.0 46 238
- 0.92536 1 0 ack 40 ------- 0 1.0 0.0 46 238